[Molden Format]
made by pyscf v[2.2.1]
[Atoms] (AU)
Fe   1   26     3.17068844873907     0.00098706064664     0.12237737881307
O   2   8     0.00000000000000     0.00000000000000    -0.89004350580623
Fe   3   26    -3.17068844873907    -0.00098706064664     0.12237737881307
Cl   4   17     3.53383895113107    -2.07485195383062     3.76228752659000
Cl   5   17     5.54152580550813    -1.85590924879884    -2.78672786652360
Cl   6   17     4.48169216485503     3.92976278472880    -0.95330240907949
Cl   7   17    -3.53383895113107     2.07485195383062     3.76228752659000
Cl   8   17    -5.54152580550813     1.85590924879884    -2.78672786652360
Cl   9   17    -4.48169216485503    -3.92976278472880    -0.95330240907949
[GTO]
1 0
 s    6 1.00
              61132.62  0.0017661109761772
              9179.342   0.013530379817491
              2090.857   0.066731279099873
              589.2479    0.23148229687757
              188.7543    0.47970579352933
              64.44629    0.35019759527624
 s    6 1.00
               1259.98   0.002438014026839
              299.8761   0.032240480354921
              96.84917    0.12657240139338
               36.3102  -0.031399020345658
              14.72996   -0.62075930683366
              6.066075   -0.45029140495706
 s    6 1.00
              50.43485  -0.0038732559842369
              16.83929   0.071965979707118
              7.192086    0.25565909895954
               3.05342   -0.28828369882676
              1.273643   -0.73428219701167
              0.504091   -0.20493529916597
 s    3 1.00
              1.950316   0.056948690305124
              0.736721    0.28829150154463
              0.114177    -1.1381590060981
 s    1 1.00
              0.041148                   1
 p    6 1.00
               1259.98  0.0040280186654072
              299.8761   0.031446467387857
              96.84917    0.13683168863389
               36.3102    0.34872357103281
              14.72996    0.46179306164054
              6.066075    0.20430578302906
 p    6 1.00
              50.43485  -0.0070171278804837
              16.83929  -0.028776599509875
              7.192086   0.061813828947182
               3.05342     0.3954945932639
              1.273643    0.49890589150259
              0.504091    0.17912509694913
 p    3 1.00
              1.950316   -0.45937961634956
              0.736721    0.28521391015091
              0.114177    0.90764853230368
 p    1 1.00
              0.041148                   1
 d    3 1.00
              23.14994   0.088769354792419
              6.122368    0.38963192103518
              1.846601    0.70148163787111
 d    1 1.00
              0.504361                   1
 f    1 1.00
                   0.8                   1

2 0
 s    6 1.00
             5484.6717   0.001831099805527
             825.23495   0.013950098518422
             188.04696    0.06844509273075
               52.9645    0.23271427528445
              16.89757    0.47019295006289
             5.7996353    0.35852086192309
 s    3 1.00
             15.539616   -0.11077750382508
             3.5999336   -0.14802630511126
             1.0137618     1.1307670390447
 s    1 1.00
             0.2700058                   1
 p    3 1.00
             15.539616   0.070874299543311
             3.5999336    0.33975279781076
             1.0137618    0.72715859531445
 p    1 1.00
             0.2700058                   1
 d    1 1.00
                   0.8                   1

3 0
 s    6 1.00
              61132.62  0.0017661109761772
              9179.342   0.013530379817491
              2090.857   0.066731279099873
              589.2479    0.23148229687757
              188.7543    0.47970579352933
              64.44629    0.35019759527624
 s    6 1.00
               1259.98   0.002438014026839
              299.8761   0.032240480354921
              96.84917    0.12657240139338
               36.3102  -0.031399020345658
              14.72996   -0.62075930683366
              6.066075   -0.45029140495706
 s    6 1.00
              50.43485  -0.0038732559842369
              16.83929   0.071965979707118
              7.192086    0.25565909895954
               3.05342   -0.28828369882676
              1.273643   -0.73428219701167
              0.504091   -0.20493529916597
 s    3 1.00
              1.950316   0.056948690305124
              0.736721    0.28829150154463
              0.114177    -1.1381590060981
 s    1 1.00
              0.041148                   1
 p    6 1.00
               1259.98  0.0040280186654072
              299.8761   0.031446467387857
              96.84917    0.13683168863389
               36.3102    0.34872357103281
              14.72996    0.46179306164054
              6.066075    0.20430578302906
 p    6 1.00
              50.43485  -0.0070171278804837
              16.83929  -0.028776599509875
              7.192086   0.061813828947182
               3.05342     0.3954945932639
              1.273643    0.49890589150259
              0.504091    0.17912509694913
 p    3 1.00
              1.950316   -0.45937961634956
              0.736721    0.28521391015091
              0.114177    0.90764853230368
 p    1 1.00
              0.041148                   1
 d    3 1.00
              23.14994   0.088769354792419
              6.122368    0.38963192103518
              1.846601    0.70148163787111
 d    1 1.00
              0.504361                   1
 f    1 1.00
                   0.8                   1

4 0
 s    6 1.00
               25180.1  0.0018330003117875
               3780.35   0.014034002387139
               860.474   0.069097011753181
               242.145    0.23745204038983
               77.3349    0.48303408216255
                26.247    0.33985605780843
 s    6 1.00
               491.765  -0.0022974019889149
               116.984  -0.030714026589855
               37.4153   -0.11252809741822
               13.7834   0.045016038971443
               5.45215    0.58935351021719
               2.22588    0.46520640274012
 s    3 1.00
               3.18649    -0.2518312880459
               1.14427   0.061589315011948
              0.420377     1.0601854225489
 s    1 1.00
              0.142657                   1
 p    6 1.00
               491.765  0.0039894005477754
               116.984   0.030318004162896
               37.4153    0.12988001783353
               13.7834     0.3279510450302
               5.45215    0.45352706227276
               2.22588    0.25215403462269
 p    3 1.00
               3.18649   -0.01429901271425
               1.14427    0.32357228771069
              0.420377    0.74350766110453
 p    1 1.00
              0.142657                   1
 d    1 1.00
                  0.75                   1

5 0
 s    6 1.00
               25180.1  0.0018330003117875
               3780.35   0.014034002387139
               860.474   0.069097011753181
               242.145    0.23745204038983
               77.3349    0.48303408216255
                26.247    0.33985605780843
 s    6 1.00
               491.765  -0.0022974019889149
               116.984  -0.030714026589855
               37.4153   -0.11252809741822
               13.7834   0.045016038971443
               5.45215    0.58935351021719
               2.22588    0.46520640274012
 s    3 1.00
               3.18649    -0.2518312880459
               1.14427   0.061589315011948
              0.420377     1.0601854225489
 s    1 1.00
              0.142657                   1
 p    6 1.00
               491.765  0.0039894005477754
               116.984   0.030318004162896
               37.4153    0.12988001783353
               13.7834     0.3279510450302
               5.45215    0.45352706227276
               2.22588    0.25215403462269
 p    3 1.00
               3.18649   -0.01429901271425
               1.14427    0.32357228771069
              0.420377    0.74350766110453
 p    1 1.00
              0.142657                   1
 d    1 1.00
                  0.75                   1

6 0
 s    6 1.00
               25180.1  0.0018330003117875
               3780.35   0.014034002387139
               860.474   0.069097011753181
               242.145    0.23745204038983
               77.3349    0.48303408216255
                26.247    0.33985605780843
 s    6 1.00
               491.765  -0.0022974019889149
               116.984  -0.030714026589855
               37.4153   -0.11252809741822
               13.7834   0.045016038971443
               5.45215    0.58935351021719
               2.22588    0.46520640274012
 s    3 1.00
               3.18649    -0.2518312880459
               1.14427   0.061589315011948
              0.420377     1.0601854225489
 s    1 1.00
              0.142657                   1
 p    6 1.00
               491.765  0.0039894005477754
               116.984   0.030318004162896
               37.4153    0.12988001783353
               13.7834     0.3279510450302
               5.45215    0.45352706227276
               2.22588    0.25215403462269
 p    3 1.00
               3.18649   -0.01429901271425
               1.14427    0.32357228771069
              0.420377    0.74350766110453
 p    1 1.00
              0.142657                   1
 d    1 1.00
                  0.75                   1

7 0
 s    6 1.00
               25180.1  0.0018330003117875
               3780.35   0.014034002387139
               860.474   0.069097011753181
               242.145    0.23745204038983
               77.3349    0.48303408216255
                26.247    0.33985605780843
 s    6 1.00
               491.765  -0.0022974019889149
               116.984  -0.030714026589855
               37.4153   -0.11252809741822
               13.7834   0.045016038971443
               5.45215    0.58935351021719
               2.22588    0.46520640274012
 s    3 1.00
               3.18649    -0.2518312880459
               1.14427   0.061589315011948
              0.420377     1.0601854225489
 s    1 1.00
              0.142657                   1
 p    6 1.00
               491.765  0.0039894005477754
               116.984   0.030318004162896
               37.4153    0.12988001783353
               13.7834     0.3279510450302
               5.45215    0.45352706227276
               2.22588    0.25215403462269
 p    3 1.00
               3.18649   -0.01429901271425
               1.14427    0.32357228771069
              0.420377    0.74350766110453
 p    1 1.00
              0.142657                   1
 d    1 1.00
                  0.75                   1

8 0
 s    6 1.00
               25180.1  0.0018330003117875
               3780.35   0.014034002387139
               860.474   0.069097011753181
               242.145    0.23745204038983
               77.3349    0.48303408216255
                26.247    0.33985605780843
 s    6 1.00
               491.765  -0.0022974019889149
               116.984  -0.030714026589855
               37.4153   -0.11252809741822
               13.7834   0.045016038971443
               5.45215    0.58935351021719
               2.22588    0.46520640274012
 s    3 1.00
               3.18649    -0.2518312880459
               1.14427   0.061589315011948
              0.420377     1.0601854225489
 s    1 1.00
              0.142657                   1
 p    6 1.00
               491.765  0.0039894005477754
               116.984   0.030318004162896
               37.4153    0.12988001783353
               13.7834     0.3279510450302
               5.45215    0.45352706227276
               2.22588    0.25215403462269
 p    3 1.00
               3.18649   -0.01429901271425
               1.14427    0.32357228771069
              0.420377    0.74350766110453
 p    1 1.00
              0.142657                   1
 d    1 1.00
                  0.75                   1

9 0
 s    6 1.00
               25180.1  0.0018330003117875
               3780.35   0.014034002387139
               860.474   0.069097011753181
               242.145    0.23745204038983
               77.3349    0.48303408216255
                26.247    0.33985605780843
 s    6 1.00
               491.765  -0.0022974019889149
               116.984  -0.030714026589855
               37.4153   -0.11252809741822
               13.7834   0.045016038971443
               5.45215    0.58935351021719
               2.22588    0.46520640274012
 s    3 1.00
               3.18649    -0.2518312880459
               1.14427   0.061589315011948
              0.420377     1.0601854225489
 s    1 1.00
              0.142657                   1
 p    6 1.00
               491.765  0.0039894005477754
               116.984   0.030318004162896
               37.4153    0.12988001783353
               13.7834     0.3279510450302
               5.45215    0.45352706227276
               2.22588    0.25215403462269
 p    3 1.00
               3.18649   -0.01429901271425
               1.14427    0.32357228771069
              0.420377    0.74350766110453
 p    1 1.00
              0.142657                   1
 d    1 1.00
                  0.75                   1

[5d]
[7f]
[9g]

[MO]
 Sym= A
 Ene=               0
 Spin= Alpha
 Occup=    1.00000
   1    0.0012673125250246
   2    0.0055260359656886
   3    -0.013650330068882
   4     0.032165305606996
   5    -0.0030494669456101
   6     0.002324457734478
   7    0.0018083318807657
   8    -0.0065014123875888
   9    -0.0049786519863805
  10    -0.0033491525482224
  11     0.011300647684751
  12    0.0074004517474774
  13    0.0074361819246072
  14    -0.027569586753468
  15    0.0003917807025431
  16    -0.005557919930892
  17    0.0095650133817647
  18      0.22277957447659
  19     -0.34061763274194
  20     -0.49558612251362
  21      0.39904318035719
  22      0.18038158541366
  23      0.10868526027055
  24     -0.16719949582712
  25     -0.24307427748499
  26      0.19651528745376
  27     0.088946354794789
  28    0.0018042385623937
  29    -0.0017365451837267
  30    -0.0018801737625911
  31    0.00020217749437091
  32    -0.0009623519696275
  33    0.0019201146223905
  34    0.00038639655702017
  35    0.00014991958824796
  36    0.00028283717803407
  37     0.001556547027205
  38    -0.00051913865421929
  39    0.00065768281843617
  40    -0.037610466840886
  41    -0.0010585275658253
  42    2.6101321573449e-05
  43    -0.032121294116561
  44    -5.684812039437e-05
  45    0.00015274694124188
  46    -0.001006438827286
  47    0.00013215978960392
  48    0.00027315834531757
  49    0.00018373974441434
  50    0.00090704495201145
  51    -0.0017233489099992
  52     0.006104104461712
  53    0.0096253570954729
  54    -0.0012692924551068
  55    1.7010411478209e-05
  56    -0.00068457164895579
  57    0.0029196781125059
  58    -0.00026184895901074
  59    0.0012544825354173
  60    -0.0036357087991458
  61    -0.00055782128009056
  62    -0.0027719511256379
  63    0.0043837738875563
  64    0.0015406874383875
  65    -0.0058575552837435
  66    0.0005074070338971
  67    -0.0010424060094237
  68    4.6615196327251e-05
  69    -0.00025233918943875
  70    7.211497662823e-05
  71    0.0014323716706044
  72    -0.001819818245036
  73    0.00035224233143632
  74    -0.0011681415412024
  75    0.0002305256144009
  76    0.00020041618844512
  77    0.00079524653287248
  78    9.5695551252012e-05
  79    -0.00033521511665752
  80    -3.455659264875e-07
  81    -0.00046901001787159
  82    5.3952029834632e-05
  83    -0.0018291900376478
  84    0.0093086626143352
  85    -0.014119046090855
  86    -0.0089543617358211
  87    -0.014873669726761
  88     0.011419523891949
  89    -0.016514224421555
  90     0.038427650825989
  91    -0.029001310064532
  92      0.04173537685631
  93     0.023672512457038
  94    -0.019380730842575
  95     0.030125045950528
  96     -0.00031454556948
  97     0.002991536084867
  98    -0.0012149154640504
  99    0.00074959293837717
 100    -0.0018921195256829
 101    0.00043524378741265
 102    -0.0023633924712655
 103    0.0028319775081768
 104    0.0056179201001975
 105     0.014507807877419
 106     0.023815938773809
 107    -0.011062088754314
 108    -0.037375991013903
 109    -0.061821999826294
 110     0.028554409775999
 111    -0.024630461911345
 112    -0.037879536251636
 113     0.019625697062115
 114    -0.0014731952425115
 115    0.0023808231186694
 116    0.0035841885846043
 117    -0.0041456876613074
 118    -0.0026227230620603
 119    0.00048705065404148
 120    -0.0026849737590048
 121     0.003011165476619
 122    0.0086253491568078
 123     0.012549918422201
 124    -0.0042165508341187
 125    -0.025008928737772
 126    -0.032411616495724
 127       0.0110276473607
 128     0.064760634385652
 129    -0.020833594757885
 130    0.0046068913619813
 131     0.041164984369502
 132    -0.0023177864116477
 133    0.0023164930451386
 134    0.0036738145221013
 135    -0.0033513259827819
 136    -0.0013879662581542
 137    0.00019926528673087
 138    -0.00073793245039275
 139     0.002631532310852
 140    0.0002882600677139
 141    -0.0015658092820264
 142    0.00055369989366822
 143    0.00059978736289193
 144    0.0042562133861968
 145    -0.0015293571902781
 146    -0.0017983115076738
 147    0.0016650508017759
 148    -0.0013617737796985
 149    -0.00062403597244856
 150    9.2213323733751e-05
 151    0.00017807876911671
 152    -4.1583657922279e-05
 153    -0.00011276033571356
 154    0.00016287962953828
 155    -4.5963020424236e-05
 156    0.00029745019961718
 157    -0.00016070547339681
 158    -0.0036045235992922
 159    0.00074072671343016
 160    2.0028124287081e-05
 161    -0.00063567361699195
 162    -0.0020014746488559
 163    7.089680766514e-05
 164    0.0014758495658364
 165    -0.0015433688865626
 166    -8.6605183767757e-05
 167    0.0015960357427989
 168    4.5409379327369e-06
 169    1.2440618687157e-05
 170    -6.5008952949576e-05
 171    7.1188403993317e-05
 172    -6.3027321717292e-05
 173    3.5870259890098e-05
 174    1.6714981598958e-05
 175    0.0010235861360906
 176    -0.002778342576479
 177    -0.00014268163102608
 178    -7.0580600149517e-05
 179    -0.00068512778591778
 180    0.00056140504105611
 181    0.00025581217565988
 182    0.0017761869027349
 183    -0.00091372063426931
 184    -0.00074741070355326
 185    0.0016731908664236
 186    -1.4446733509147e-05
 187    -9.6193736799819e-05
 188    -3.7974577530319e-05
 189    -1.544100679323e-05
 190    -2.6845071263124e-05
 Sym= A
 Ene=               1
 Spin= Alpha
 Occup=    1.00000
   1    -0.00070206437531432
   2    -0.0031914042602759
   3    0.0072704404857889
   4    -0.020219244128436
   5    6.0774513917499e-05
   6    -0.0014188161063847
   7    0.0094364155320101
   8    0.0042023143093595
   9    0.0030088930065233
  10    -0.016178997076767
  11    -0.0069269460114986
  12     -0.00452394909752
  13     0.040174891170478
  14     0.018257831017988
  15    0.0033884951292904
  16    -0.012402225611168
  17    -0.0023009316678321
  18      0.53730831971345
  19      0.08873206042896
  20      0.42137680638819
  21       0.1551554978423
  22       0.3223249217256
  23      0.26253844983773
  24     0.042942904668851
  25      0.20588215075746
  26     0.075376916832707
  27      0.15769823437699
  28    0.0014617875352892
  29     0.002653140750834
  30    0.0011909150189827
  31    0.0015148817710012
  32    0.0026495523897375
  33    -0.00021456162392801
  34    0.0025655840322844
  35    0.00086415253271965
  36    -0.0023956107252746
  37    -0.0053018367217975
  38    -0.0051101023758393
  39     0.058557856910682
  40     0.040608038138944
  41    -0.0037439893721989
  42      0.04928295438579
  43     0.034767106271447
  44    0.0017673826067238
  45    -0.00099944899790853
  46    0.0019546792759365
  47    0.00062911458719659
  48    -0.001189323746201
  49    -0.00031892702009369
  50    -0.0014826906269729
  51    0.0032503958013542
  52    -0.0098701083422453
  53    -0.0035205876473902
  54    0.0018076965795377
  55    0.0016617753698827
  56    0.00059051475110382
  57    -0.0038334963579795
  58    -0.0027755771901112
  59    -0.00064147480851772
  60    0.0061831101124799
  61    0.0075612000879157
  62    0.0035604349764437
  63    -0.0016800425635475
  64    0.0081467759781426
  65    0.0045215658678317
  66    -0.00074774637315341
  67    0.00054479268521478
  68    -0.00034943703243857
  69    0.00057258408740516
  70    0.0012980549535149
  71    -0.0019930851620949
  72     0.001378011934463
  73    -0.0011839661011257
  74    0.0013924818163147
  75    0.0040212092876768
  76    -8.9345382333898e-05
  77    -0.00086602357119727
  78    -0.00032493969253183
  79    0.0003368855187062
  80    -0.00074828373681207
  81    0.00061326345832522
  82    0.0014493151153274
  83    -8.1855501945238e-05
  84    0.00055400097751029
  85    -0.00014697681250278
  86    -0.0044524586307894
  87    -0.0035136701434644
  88     0.026118645706524
  89       0.0136853597333
  90    0.0092622374409224
  91     -0.06797414016102
  92    -0.035515401624978
  93     0.005086803412518
  94    -0.044258854775147
  95    -0.022040755034666
  96    -0.0051790670088275
  97    0.00058199178479895
  98    -0.0028555263775836
  99    -0.0027331028130808
 100    -0.00065497028950488
 101    -0.0011490953364508
 102    0.0059447156606801
 103    -0.008589145983537
 104    -0.0079354490473657
 105    -0.020864839498403
 106      0.01547066095918
 107    -0.0078019333707412
 108       0.0536064870269
 109    -0.039886425731235
 110     0.020789505744904
 111     0.034460851776766
 112     -0.02819028843495
 113     0.010173659847364
 114    -0.0047876218325497
 115    0.00031510147845111
 116    -0.00034649309021465
 117    0.0013483280555521
 118    -0.0023646143350537
 119    0.0017467683615995
 120    -0.0087652378372228
 121     0.013798600342303
 122    0.0079581674182259
 123     0.016125523064779
 124     0.017954769354955
 125    0.0041205407586822
 126    -0.041219063328851
 127    -0.045259446764116
 128    -0.011163788359853
 129    -0.026372282878667
 130     -0.03282939353212
 131    -0.0076137386554942
 132    0.0016570250558704
 133    0.00043458377293645
 134    -0.0012773417688884
 135    -0.00079516681284643
 136    -0.0025231064181533
 137    -0.00025356342055766
 138    0.0011943360860079
 139    -0.0024425589072579
 140    -0.0057093665649758
 141    0.0022130934715066
 142    -1.8536547043087e-05
 143    -0.0018057638228395
 144    -0.0060722680938762
 145    0.00021811326264061
 146    0.0050530391849476
 147    -0.0024913979835198
 148    0.00016889244299753
 149    0.0043799725238217
 150    -8.6081992764559e-06
 151    -0.0003539716216373
 152    -3.0986731477245e-05
 153    0.00016229341750603
 154    -3.7414708215128e-05
 155    -6.1376029557254e-05
 156    0.00025650739141511
 157    -0.00070649871797396
 158    -0.00014151110676205
 159    0.00053528202064835
 160    0.00040102607574095
 161    0.00077480748069984
 162    -0.0015662009240252
 163    -0.00091039253183869
 164    -0.0018807320236413
 165    -0.00064061614325039
 166    -0.0024355606390798
 167    -0.0028730528637261
 168    -8.3066662259307e-05
 169    3.917385943946e-05
 170    5.5241640917558e-05
 171    5.3142274762649e-05
 172    6.8071261046035e-05
 173    0.00021195414855158
 174    -0.00097150259898192
 175     0.002136430587794
 176    0.0054248413912634
 177    -0.0024570107618208
 178    -0.00061560940250179
 179    0.00083604504698926
 180    0.0068236077601398
 181    0.0019884099680131
 182    -0.0022097348559886
 183    0.0023470058547917
 184    0.00094277933289176
 185    -0.00096990803990453
 186    0.00013975494770656
 187    0.00015084357509952
 188    6.6449945449803e-05
 189    -0.000241206811631
 190    -0.00018684258106356
 Sym= A
 Ene=               2
 Spin= Alpha
 Occup=    1.00000
   1    0.00025715482074133
   2    0.0010910887278449
   3    -0.0028383449112409
   4    0.0059720551843972
   5    0.0047901130023557
   6    -0.00074708557556949
   7    0.0054799701054405
   8    -0.0022049235734731
   9    0.0014576313920434
  10    -0.011493930172826
  11    0.0053836114071581
  12    -0.0027922915554287
  13     0.019237310063602
  14    -0.0060787617187707
  15    -0.0016875723615762
  16    -0.018484606859273
  17     0.010463494650587
  18      0.41185190780148
  19      0.22791588295412
  20     -0.14103435648942
  21     0.055132005005369
  22     -0.59683754110406
  23      0.19661558681397
  24      0.10881051638303
  25    -0.067173987530082
  26     0.025868764368078
  27     -0.28490712389248
  28    0.00021616630871809
  29    0.0025359303329418
  30    0.0011988698367476
  31    0.0027698717004132
  32    -0.0038862005105104
  33    -0.0013860843969428
  34    -0.005797028525279
  35    0.0013654287647195
  36    -0.0041545936142465
  37    -0.0049175375028704
  38    -0.010967187271119
  39     -0.10397210845718
  40     0.056297713371366
  41    -0.0093082769647102
  42    -0.095939482314852
  43     0.050573829461949
  44    0.0019421220705224
  45    -0.0015750738579765
  46    -0.0024813176171802
  47    0.0005103980535764
  48      0.00194700183169
  49    -0.00048111489070846
  50    -0.0020827668935048
  51    0.0052471614634199
  52    -0.011927642192696
  53    -0.010014012650498
  54    0.0028058746311978
  55    -0.0032017325080367
  56    0.0010002100508515
  57    -0.0060794015566025
  58    0.0055658433929511
  59    -0.0011896016156095
  60    0.0093460197373681
  61    -0.013983591693109
  62     0.005759500237253
  63    -0.0040871496045348
  64    -0.0055082940350383
  65    0.0040498267668473
  66    -0.00087417351343512
  67    0.00045727814959124
  68    0.00054261885369808
  69    0.0014347570011223
  70    -0.0022366599963807
  71    -0.0017851278882902
  72    0.0019261173961071
  73    0.0012571759929954
  74    0.0028135808219447
  75    -0.0066348913711662
  76    -0.00021411791832084
  77    -0.001173451686355
  78    0.00030415106909616
  79    0.00017389148178819
  80    0.0012145532796858
  81    0.00081467197352634
  82    -0.0024041031226165
  83    -0.0026751661545649
  84     0.013734779801263
  85    -0.020450035412021
  86    -0.027370142942697
  87     0.010512145912069
  88     0.023517127726651
  89    -0.023247383332659
  90    -0.026998162381261
  91    -0.060731039821587
  92     0.059702545959489
  93    -0.017250957818965
  94    -0.042506150607713
  95     0.045822392576773
  96    -0.00063899576535083
  97    -0.0033615693875468
  98    -0.0017878150562297
  99    -0.0011884784266292
 100    0.00089165064345075
 101    -0.00099113287347722
 102    0.0048284047705494
 103    -0.0086004390264162
 104    -0.0062573849056901
 105    -0.0080390681030593
 106    0.0073629073703877
 107    0.0038447048274902
 108     0.020736170847267
 109     -0.01932386011727
 110    -0.009635289620139
 111     0.014328592889332
 112    -0.013372036697066
 113    -0.0089329450556534
 114    -0.00045310456796695
 115    0.00027745128013855
 116    -0.00048566668184003
 117    0.00023035690938743
 118    -0.0011612745943757
 119     0.003216682049778
 120    -0.016185984488211
 121     0.025551325771294
 122     0.030117189896775
 123    -0.003401149610634
 124     0.037379244503217
 125    -0.018830012806454
 126    0.0088187776542555
 127    -0.095840881288571
 128     0.048220265161028
 129    0.0034861802871709
 130    -0.071133261220102
 131     0.033424383862336
 132    -0.00029430364206143
 133    -3.6545483290491e-05
 134    0.0019240849512145
 135    0.0017476272286929
 136    0.0029872050444537
 137    -8.2913497950316e-05
 138    0.00027616046850492
 139    -0.0012169084100419
 140    0.0011124337251658
 141    0.00013199471589751
 142    -0.0015786261149677
 143    0.00015939466926021
 144    -0.00048196818427287
 145    0.0039633876208985
 146    -0.00022610241289261
 147    -0.0002987929573433
 148    0.0054574309129277
 149    -0.0018386662103578
 150    -0.0001141890297254
 151    -5.2058331912984e-05
 152    0.00011265598991887
 153    -4.8558766184808e-05
 154    -0.00022375725655384
 155    0.00023437133554988
 156    -0.0011193227617809
 157    0.0022178742800302
 158    0.0073817005189439
 159    -0.0031526849969757
 160    -0.00075858376619725
 161    0.00068874692610564
 162    0.0086924276484282
 163    0.0016688032343224
 164    -0.0015696841838528
 165    0.0051551607049868
 166     0.002221757759017
 167    0.00053051651436981
 168    9.5714823129489e-05
 169    -3.0030424974693e-05
 170    6.2245284950828e-05
 171    -0.0002878695391991
 172    9.7853883862868e-07
 173    -0.00048352136281306
 174    0.0019623533113153
 175    -0.0057868137915893
 176    -0.0038972652402713
 177    0.0041712282127309
 178    0.0015870684456321
 179    0.0007976455773528
 180    -0.011466790913168
 181    -0.0046923192978109
 182    -0.0019213840321705
 183    -0.0061795862138938
 184    -0.0027717267114901
 185    -0.0042160049760971
 186    -0.00031437070137313
 187    5.1529870217205e-05
 188    -5.2529449918327e-05
 189    0.00053644195853105
 190    0.00050882159735526
 Sym= A
 Ene=               3
 Spin= Alpha
 Occup=    1.00000
   1    -0.00063359512138357
   2    -0.0022675629816678
   3    0.0078481206055976
   4    -0.0051062303758469
   5    0.0080805735751715
   6    -0.011161217528257
   7    0.0060067574745812
   8    0.0067859382870339
   9     0.023491533147209
  10    -0.011215830510802
  11    -0.012974932157918
  12    -0.036585993298471
  13     0.023839475553541
  14     0.026804307824091
  15    0.0073720258014086
  16    -0.011647763054331
  17     -0.01782503590086
  18     -0.02850280850938
  19     -0.59489063600408
  20      0.35839243055041
  21      0.10254770169728
  22      -0.3177740499204
  23    -0.011581202295326
  24     -0.28418134665972
  25      0.17050716188213
  26     0.045424391465916
  27     -0.15040140989953
  28    0.0025920546240394
  29    -0.0049617569847673
  30    0.0016118191803481
  31    -0.0033203379108348