[Molden Format]
made by pyscf v[2.2.1]
[Atoms] (AU)
Fe   1   26     3.17068844873907     0.00098706064664     0.12237737881307
O   2   8     0.00000000000000     0.00000000000000    -0.89004350580623
Fe   3   26    -3.17068844873907    -0.00098706064664     0.12237737881307
Cl   4   17     3.53383895113107    -2.07485195383062     3.76228752659000
Cl   5   17     5.54152580550813    -1.85590924879884    -2.78672786652360
Cl   6   17     4.48169216485503     3.92976278472880    -0.95330240907949
Cl   7   17    -3.53383895113107     2.07485195383062     3.76228752659000
Cl   8   17    -5.54152580550813     1.85590924879884    -2.78672786652360
Cl   9   17    -4.48169216485503    -3.92976278472880    -0.95330240907949
[GTO]
1 0
 s    6 1.00
              61132.62  0.0017661109761772
              9179.342   0.013530379817491
              2090.857   0.066731279099873
              589.2479    0.23148229687757
              188.7543    0.47970579352933
              64.44629    0.35019759527624
 s    6 1.00
               1259.98   0.002438014026839
              299.8761   0.032240480354921
              96.84917    0.12657240139338
               36.3102  -0.031399020345658
              14.72996   -0.62075930683366
              6.066075   -0.45029140495706
 s    6 1.00
              50.43485  -0.0038732559842369
              16.83929   0.071965979707118
              7.192086    0.25565909895954
               3.05342   -0.28828369882676
              1.273643   -0.73428219701167
              0.504091   -0.20493529916597
 s    3 1.00
              1.950316   0.056948690305124
              0.736721    0.28829150154463
              0.114177    -1.1381590060981
 s    1 1.00
              0.041148                   1
 p    6 1.00
               1259.98  0.0040280186654072
              299.8761   0.031446467387857
              96.84917    0.13683168863389
               36.3102    0.34872357103281
              14.72996    0.46179306164054
              6.066075    0.20430578302906
 p    6 1.00
              50.43485  -0.0070171278804837
              16.83929  -0.028776599509875
              7.192086   0.061813828947182
               3.05342     0.3954945932639
              1.273643    0.49890589150259
              0.504091    0.17912509694913
 p    3 1.00
              1.950316   -0.45937961634956
              0.736721    0.28521391015091
              0.114177    0.90764853230368
 p    1 1.00
              0.041148                   1
 d    3 1.00
              23.14994   0.088769354792419
              6.122368    0.38963192103518
              1.846601    0.70148163787111
 d    1 1.00
              0.504361                   1
 f    1 1.00
                   0.8                   1

2 0
 s    6 1.00
             5484.6717   0.001831099805527
             825.23495   0.013950098518422
             188.04696    0.06844509273075
               52.9645    0.23271427528445
              16.89757    0.47019295006289
             5.7996353    0.35852086192309
 s    3 1.00
             15.539616   -0.11077750382508
             3.5999336   -0.14802630511126
             1.0137618     1.1307670390447
 s    1 1.00
             0.2700058                   1
 p    3 1.00
             15.539616   0.070874299543311
             3.5999336    0.33975279781076
             1.0137618    0.72715859531445
 p    1 1.00
             0.2700058                   1
 d    1 1.00
                   0.8                   1

3 0
 s    6 1.00
              61132.62  0.0017661109761772
              9179.342   0.013530379817491
              2090.857   0.066731279099873
              589.2479    0.23148229687757
              188.7543    0.47970579352933
              64.44629    0.35019759527624
 s    6 1.00
               1259.98   0.002438014026839
              299.8761   0.032240480354921
              96.84917    0.12657240139338
               36.3102  -0.031399020345658
              14.72996   -0.62075930683366
              6.066075   -0.45029140495706
 s    6 1.00
              50.43485  -0.0038732559842369
              16.83929   0.071965979707118
              7.192086    0.25565909895954
               3.05342   -0.28828369882676
              1.273643   -0.73428219701167
              0.504091   -0.20493529916597
 s    3 1.00
              1.950316   0.056948690305124
              0.736721    0.28829150154463
              0.114177    -1.1381590060981
 s    1 1.00
              0.041148                   1
 p    6 1.00
               1259.98  0.0040280186654072
              299.8761   0.031446467387857
              96.84917    0.13683168863389
               36.3102    0.34872357103281
              14.72996    0.46179306164054
              6.066075    0.20430578302906
 p    6 1.00
              50.43485  -0.0070171278804837
              16.83929  -0.028776599509875
              7.192086   0.061813828947182
               3.05342     0.3954945932639
              1.273643    0.49890589150259
              0.504091    0.17912509694913
 p    3 1.00
              1.950316   -0.45937961634956
              0.736721    0.28521391015091
              0.114177    0.90764853230368
 p    1 1.00
              0.041148                   1
 d    3 1.00
              23.14994   0.088769354792419
              6.122368    0.38963192103518
              1.846601    0.70148163787111
 d    1 1.00
              0.504361                   1
 f    1 1.00
                   0.8                   1

4 0
 s    6 1.00
               25180.1  0.0018330003117875
               3780.35   0.014034002387139
               860.474   0.069097011753181
               242.145    0.23745204038983
               77.3349    0.48303408216255
                26.247    0.33985605780843
 s    6 1.00
               491.765  -0.0022974019889149
               116.984  -0.030714026589855
               37.4153   -0.11252809741822
               13.7834   0.045016038971443
               5.45215    0.58935351021719
               2.22588    0.46520640274012
 s    3 1.00
               3.18649    -0.2518312880459
               1.14427   0.061589315011948
              0.420377     1.0601854225489
 s    1 1.00
              0.142657                   1
 p    6 1.00
               491.765  0.0039894005477754
               116.984   0.030318004162896
               37.4153    0.12988001783353
               13.7834     0.3279510450302
               5.45215    0.45352706227276
               2.22588    0.25215403462269
 p    3 1.00
               3.18649   -0.01429901271425
               1.14427    0.32357228771069
              0.420377    0.74350766110453
 p    1 1.00
              0.142657                   1
 d    1 1.00
                  0.75                   1

5 0
 s    6 1.00
               25180.1  0.0018330003117875
               3780.35   0.014034002387139
               860.474   0.069097011753181
               242.145    0.23745204038983
               77.3349    0.48303408216255
                26.247    0.33985605780843
 s    6 1.00
               491.765  -0.0022974019889149
               116.984  -0.030714026589855
               37.4153   -0.11252809741822
               13.7834   0.045016038971443
               5.45215    0.58935351021719
               2.22588    0.46520640274012
 s    3 1.00
               3.18649    -0.2518312880459
               1.14427   0.061589315011948
              0.420377     1.0601854225489
 s    1 1.00
              0.142657                   1
 p    6 1.00
               491.765  0.0039894005477754
               116.984   0.030318004162896
               37.4153    0.12988001783353
               13.7834     0.3279510450302
               5.45215    0.45352706227276
               2.22588    0.25215403462269
 p    3 1.00
               3.18649   -0.01429901271425
               1.14427    0.32357228771069
              0.420377    0.74350766110453
 p    1 1.00
              0.142657                   1
 d    1 1.00
                  0.75                   1

6 0
 s    6 1.00
               25180.1  0.0018330003117875
               3780.35   0.014034002387139
               860.474   0.069097011753181
               242.145    0.23745204038983
               77.3349    0.48303408216255
                26.247    0.33985605780843
 s    6 1.00
               491.765  -0.0022974019889149
               116.984  -0.030714026589855
               37.4153   -0.11252809741822
               13.7834   0.045016038971443
               5.45215    0.58935351021719
               2.22588    0.46520640274012
 s    3 1.00
               3.18649    -0.2518312880459
               1.14427   0.061589315011948
              0.420377     1.0601854225489
 s    1 1.00
              0.142657                   1
 p    6 1.00
               491.765  0.0039894005477754
               116.984   0.030318004162896
               37.4153    0.12988001783353
               13.7834     0.3279510450302
               5.45215    0.45352706227276
               2.22588    0.25215403462269
 p    3 1.00
               3.18649   -0.01429901271425
               1.14427    0.32357228771069
              0.420377    0.74350766110453
 p    1 1.00
              0.142657                   1
 d    1 1.00
                  0.75                   1

7 0
 s    6 1.00
               25180.1  0.0018330003117875
               3780.35   0.014034002387139
               860.474   0.069097011753181
               242.145    0.23745204038983
               77.3349    0.48303408216255
                26.247    0.33985605780843
 s    6 1.00
               491.765  -0.0022974019889149
               116.984  -0.030714026589855
               37.4153   -0.11252809741822
               13.7834   0.045016038971443
               5.45215    0.58935351021719
               2.22588    0.46520640274012
 s    3 1.00
               3.18649    -0.2518312880459
               1.14427   0.061589315011948
              0.420377     1.0601854225489
 s    1 1.00
              0.142657                   1
 p    6 1.00
               491.765  0.0039894005477754
               116.984   0.030318004162896
               37.4153    0.12988001783353
               13.7834     0.3279510450302
               5.45215    0.45352706227276
               2.22588    0.25215403462269
 p    3 1.00
               3.18649   -0.01429901271425
               1.14427    0.32357228771069
              0.420377    0.74350766110453
 p    1 1.00
              0.142657                   1
 d    1 1.00
                  0.75                   1

8 0
 s    6 1.00
               25180.1  0.0018330003117875
               3780.35   0.014034002387139
               860.474   0.069097011753181
               242.145    0.23745204038983
               77.3349    0.48303408216255
                26.247    0.33985605780843
 s    6 1.00
               491.765  -0.0022974019889149
               116.984  -0.030714026589855
               37.4153   -0.11252809741822
               13.7834   0.045016038971443
               5.45215    0.58935351021719
               2.22588    0.46520640274012
 s    3 1.00
               3.18649    -0.2518312880459
               1.14427   0.061589315011948
              0.420377     1.0601854225489
 s    1 1.00
              0.142657                   1
 p    6 1.00
               491.765  0.0039894005477754
               116.984   0.030318004162896
               37.4153    0.12988001783353
               13.7834     0.3279510450302
               5.45215    0.45352706227276
               2.22588    0.25215403462269
 p    3 1.00
               3.18649   -0.01429901271425
               1.14427    0.32357228771069
              0.420377    0.74350766110453
 p    1 1.00
              0.142657                   1
 d    1 1.00
                  0.75                   1

9 0
 s    6 1.00
               25180.1  0.0018330003117875
               3780.35   0.014034002387139
               860.474   0.069097011753181
               242.145    0.23745204038983
               77.3349    0.48303408216255
                26.247    0.33985605780843
 s    6 1.00
               491.765  -0.0022974019889149
               116.984  -0.030714026589855
               37.4153   -0.11252809741822
               13.7834   0.045016038971443
               5.45215    0.58935351021719
               2.22588    0.46520640274012
 s    3 1.00
               3.18649    -0.2518312880459
               1.14427   0.061589315011948
              0.420377     1.0601854225489
 s    1 1.00
              0.142657                   1
 p    6 1.00
               491.765  0.0039894005477754
               116.984   0.030318004162896
               37.4153    0.12988001783353
               13.7834     0.3279510450302
               5.45215    0.45352706227276
               2.22588    0.25215403462269
 p    3 1.00
               3.18649   -0.01429901271425
               1.14427    0.32357228771069
              0.420377    0.74350766110453
 p    1 1.00
              0.142657                   1
 d    1 1.00
                  0.75                   1

[5d]
[7f]
[9g]

[MO]
 Sym= A
 Ene=               0
 Spin= Alpha
 Occup=    1.00000
   1    0.0012759818836979
   2    0.0055434649180024
   3    -0.013570483397189
   4     0.032088687694561
   5    -0.0032339629778658
   6    0.0024208330822235
   7    0.0016788077731807
   8    -0.0065155291801495
   9    -0.0049830231319211
  10    -0.0032974449750477
  11     0.011325350097972
  12    0.0077019363780553
  13    0.0067155953174046
  14    -0.027579600606318
  15    0.00039081038704664
  16    -0.0056768412503998
  17    0.0098177777653271
  18      0.22245394537702
  19     -0.34164497680147
  20     -0.49603979383706
  21        0.400082469061
  22      0.18058994775015
  23       0.1080855849658
  24     -0.16671965519999
  25     -0.24225142286162
  26      0.19615840134418
  27     0.088638365433157
  28    0.0017929789873149
  29    -0.0016769940612144
  30    -0.0018787123588889
  31    0.00022865240791549
  32    -0.00096674632444284
  33    0.0018706732023299
  34    0.00038384016642853
  35    6.087945082413e-05
  36    0.00046868682123605
  37    0.0018033962145911
  38    -0.0003591674324524
  39    0.00063207850548787
  40    -0.031510656461519
  41    -0.00085539845524491
  42    9.817093668557e-05
  43    -0.029844275853722
  44    -3.6496482629832e-05
  45    9.2393504173996e-05
  46    -0.00096883527850435
  47    0.00014199992207958
  48    0.00025112652264933
  49    0.00019250944492857
  50    0.00093438014035606
  51    -0.0016905380972838
  52    0.0059944994041324
  53    0.0094874940242146
  54    -0.001309228422985
  55    0.00011827685181583
  56    -0.00070483786447238
  57    0.0027753241980332
  58    -0.00032003642425164
  59    0.0012129836237796
  60    -0.0037382882158821
  61    -2.4255498808433e-05
  62    -0.0027323431385419
  63    0.0044066209368661
  64    0.0016536016947449
  65    -0.0055912631045489
  66    0.00010739776653379
  67    8.9512683961307e-05
  68    -0.00012139788884722
  69    -0.00024432079684968
  70    -2.6792910813737e-06
  71    0.0012341723600447
  72    -0.0013375944875944
  73    0.00031015031088997
  74    -0.0011126439122702
  75    0.00020489043394733
  76    0.0001866357379554
  77    0.00073838403119135
  78    9.4697209284354e-05
  79    -0.0003063139418933
  80    -3.7820467132502e-06
  81    -0.00042401675383873
  82    5.6596296497656e-05
  83    -0.0018356420707403
  84    0.0093322017079797
  85     -0.01421372653015
  86    -0.0091842035978376
  87    -0.014811585181589
  88     0.011380964734632
  89    -0.016562036317636
  90     0.038263405113955
  91    -0.028891543332496
  92     0.041904115427392
  93     0.023546877889761
  94    -0.019368866639185
  95     0.030212528105293
  96    -0.00032575729635473
  97     0.003018574490465
  98    -0.0012175447044746
  99    0.00075881995899894
 100    -0.0019078965684923
 101    0.00041638094513519
 102    -0.0023068274085093
 103    0.0025241931380775
 104     0.005612495547418
 105     0.014459754082231
 106     0.023791353087699
 107    -0.010977454182729
 108    -0.037233694426822
 109    -0.061770198798905
 110     0.028287050151095
 111    -0.024503012623479
 112     -0.03779441769211
 113     0.019445399522349
 114    -0.0014686754720055
 115    0.0023974811572984
 116    0.0035835250857255
 117    -0.0041652715652911
 118    -0.0026090541516183
 119     0.000506095707719
 120    -0.0027557931400004
 121    0.0032733315356367
 122    0.0088847989074996
 123     0.012611198083847
 124    -0.0041481717775876
 125    -0.025033441819111
 126    -0.032616518395745
 127     0.010804610700117
 128     0.064850885904729
 129    -0.020897237326718
 130    0.0044708965074161
 131     0.041148125545585
 132    -0.0023226565172408
 133    0.0023045081197952
 134     0.003656175917046
 135    -0.0033637892076866
 136    -0.0013834841881652
 137    0.00019451815243128
 138    -0.0007161214839042
 139    0.0025769732062982
 140    7.2190768173388e-05
 141    -0.0015811937931193
 142    0.00058661027696006
 143    0.00056381382646864
 144    0.0042939815339974
 145    -0.0016245780371741
 146    -0.0016704362838967
 147    0.0017108048312853
 148    -0.0013621161475484
 149    -0.00056123266890975
 150    8.4426091678558e-05
 151    0.00014819926546235
 152    -3.8926714548188e-05
 153    -0.00010327917367592
 154    0.00014468584190445
 155    -5.9699757601377e-05
 156    0.00033909646221903
 157    -0.00038055425512673
 158    -0.0035536584162564
 159    0.00078710351696763
 160    1.6939050293166e-05
 161    -0.00057663631547865
 162    -0.0021268857863632
 163    8.5392235706996e-05
 164    0.0012951781612088
 165    -0.0016683330491023
 166    -0.0001282506624024
 167    0.0014653860008287
 168    1.1910549104358e-05
 169    3.7864795999725e-06
 170    -6.6366871515737e-05
 171    5.353180592518e-05
 172    -5.2126444498678e-05
 173    5.2417272062192e-05
 174    -4.5014157502356e-05
 175    0.0012516394549493
 176    -0.0025350434635375
 177    -0.00018671537906018
 178    -0.0001216823318055
 179    -0.00072742990687174
 180     0.000714810489757
 181    0.00043219630407372
 182    0.0019118455959609
 183    -0.00088336750639801
 184    -0.00064026506524933
 185    0.0016825933227898
 186    -1.8732976955583e-05
 187    -8.2975926205855e-05
 188    -2.0170044359442e-05
 189    -2.7885380811908e-05
 190    -2.142251093333e-05
 Sym= A
 Ene=               1
 Spin= Alpha
 Occup=    1.00000
   1    -0.00072350995247273
   2    -0.0032756120808197
   3    0.0073518970934392
   4    -0.020540013475641
   5    0.00058901244798868
   6    -0.0015303653449708
   7    0.0096963782927388
   8    0.0044245333270089
   9    0.0030393158874653
  10    -0.016302184834029
  11    -0.0070351945264902
  12    -0.005043955495857
  13     0.041533617273006
  14     0.019451273682187
  15     0.003226570190299
  16    -0.012675048023051
  17    -0.0023904317525339
  18      0.53838936724634
  19     0.089627777929534
  20      0.42205123792715
  21      0.15474262089985
  22      0.32428064594459
  23      0.26185338574565
  24     0.042940555355026
  25       0.2053097733345
  26     0.074869274511405
  27      0.15763125250737
  28    0.0014736468624894
  29    0.0025972790694702
  30    0.0012190281640695
  31    0.0014786858190303
  32    0.0026117935873353
  33    -0.00016824369100368
  34    0.0024575022812707
  35    0.00095619060019892
  36    -0.0025504773637266
  37    -0.0055579120676878
  38    -0.0044946072549224
  39     0.048903589116358
  40     0.034047016856564
  41    -0.0035256032411495
  42     0.045719630383386
  43     0.032281101761445
  44    0.0016941130857335
  45    -0.0008839326205112
  46    0.0018455402358497
  47    0.00056600104302864
  48    -0.0010491279238923
  49    -0.00031898908791374
  50    -0.001464710641884
  51     0.003071878719833
  52    -0.0094650943502652
  53    -0.0037039908825423
  54    0.0018401874786206
  55    0.0016450836679227
  56    0.00046855113209564
  57    -0.0036168750449386
  58    -0.0026118780727259
  59    -0.00053779000603404
  60     0.006152158766118
  61     0.007181944725488
  62    0.0028105930371558
  63    -0.0018589541514862
  64    0.0076101620907111
  65    0.0040647494504743
  66    -0.00016570490782114
  67    -0.00039865187006308
  68    0.00013508838773633
  69    0.00062491511413701
  70    -0.00012013076724841
  71    -0.0017534927820302
  72    0.00096672521105917
  73    -0.00096405249928558
  74    0.0013481585911937
  75     0.003356253189497
  76    -7.5922893893321e-05
  77    -0.00079983259135316
  78    -0.00029694202009015
  79    0.00031355354653735
  80    -0.00070045099164333
  81    0.00055728725150025
  82    0.0013343174726521
  83    -0.00010479150578835
  84    0.00064152091265976
  85    -0.00045147716570496
  86    -0.0047025236230123
  87    -0.0035623301780385
  88     0.026297959867674
  89      0.01364283627934
  90    0.0094194910343306
  91    -0.068542611877829
  92    -0.035390119932399
  93     0.005128943048506
  94    -0.044421642161314
  95    -0.021896910539044
  96    -0.0051761673672049
  97    0.00057842643778277
  98    -0.0028178417281537
  99    -0.002719665531824
 100    -0.00063978919738536
 101    -0.0010994493123891
 102    0.0057935319696462
 103    -0.0077854245909157
 104    -0.0078202425037637
 105     -0.02069789516494
 106     0.015433132010004
 107    -0.0079134149432863
 108     0.053087083216254
 109    -0.039756381256309
 110     0.021189212975346
 111     0.034135354775902
 112    -0.028033384112921
 113     0.010317497792575
 114    -0.0048076010202307
 115    0.00026767163834075
 116    -0.00033511502856296
 117    0.0013932704004387
 118    -0.0023926152380635
 119    0.0017053952520605
 120    -0.0086146432820067
 121     0.013226405631492
 122     0.007763835790485
 123      0.01597399668526
 124     0.017805417063587
 125    0.0042893045461501
 126    -0.040779570768675
 127    -0.044796856862582
 128    -0.011689122562688
 129    -0.026088451050319
 130    -0.032562211998376
 131    -0.0077916373638222
 132    0.0016853191269988
 133    0.00045779173492958
 134    -0.0012466720331475
 135    -0.00079997337613497
 136    -0.0025841179430697
 137    -0.00022549164134492
 138    0.0010777416964109
 139    -0.0020937242091179
 140    -0.0050325350353272
 141    0.0022368049868673
 142    7.2062399844418e-05
 143    -0.0016979167939937
 144    -0.0061064951399385
 145    -8.0764282740632e-05
 146     0.004689477098652
 147    -0.0026164358024004
 148    4.3340513836708e-05
 149    0.0041120886167058
 150    4.530024802417e-06
 151    -0.00029756044775603
 152    -5.1366005656729e-06
 153    0.00013130724236548
 154    -1.7085237804149e-05
 155    -6.8172618398275e-05
 156    0.00027633794072854
 157    -0.0008219965219028
 158    -0.00022766540760018
 159    0.00056757990056239
 160    0.00038140140469587
 161    0.00075431939796758
 162    -0.0016900907522113
 163    -0.00085997990406952
 164    -0.0018447983409209
 165    -0.00063351457254653
 166    -0.0022192961492849
 167    -0.0027102696618711
 168    -7.6184717677317e-05
 169    2.4116950831008e-05
 170    6.193982203022e-05
 171    4.7686678376765e-05
 172    6.5121183715693e-05
 173    0.00020737823562161
 174    -0.00094758018621963
 175    0.0020897522096802
 176    0.0050261577980606
 177    -0.0024512158458042
 178    -0.00061823853273447
 179    0.00079247611750148
 180    0.0067562761325774
 181    0.0019613878424971
 182    -0.0020811882893861
 183    0.0024521579977634
 184    0.00091786502524503
 185    -0.00088127111025879
 186    0.00012230623299514
 187    0.00014438742842638
 188    5.0931275922815e-05
 189    -0.00020543647781733
 190    -0.00014236368385038
 Sym= A
 Ene=               2
 Spin= Alpha
 Occup=    1.00000
   1    0.0002595235581818
   2    0.0011035714383793
   3    -0.0029789559982775
   4    0.0061262168330671
   5    0.0043490330755422
   6    -0.00082903643438599
   7    0.0053330653320613
   8    -0.0024360417550955
   9    0.0013989503637339
  10    -0.011430006215275
  11    0.0054635634524102
  12    -0.0032151615770629
  13     0.018844676730635
  14    -0.0079579945313456
  15    -0.0012905514869171
  16    -0.017613224394248
  17     0.009793977542424
  18      0.41344659458319
  19      0.22928657655738
  20      -0.1419885644851
  21     0.054881062166267
  22      -0.6002828177686
  23      0.19607198143289
  24      0.10859465315737
  25     -0.06708768354555
  26     0.025536536852491
  27     -0.28454407571595
  28    0.00025544514530735
  29     0.002448549120081
  30    0.0011543271489181
  31    0.0027115636740823
  32    -0.0038093779556231
  33    -0.0013360193587391
  34    -0.0055997940406245
  35    0.0014977598083769
  36    -0.0043742101899582
  37    -0.0053493727376903
  38    -0.0096026597174807
  39    -0.086928694707224
  40     0.047237870873318
  41    -0.0092414483181773
  42    -0.090159112317096
  43     0.047499831145164
  44    0.0018778406629089
  45    -0.001480177202172
  46    -0.0023382849236329
  47    0.00043463440148968
  48    0.0017610643419134
  49    -0.0005134687037352
  50    -0.0021853185439421
  51    0.0052517986713722
  52    -0.011800238082212
  53    -0.0090936522529968
  54     0.002934831675476
  55    -0.0035182897401215
  56    0.0012926593896376
  57    -0.0058562007547375
  58      0.00546706371854
  59    -0.0013087286141238
  60    0.0096314340316248
  61    -0.015217561725662
  62    0.0071231309234217
  63    -0.0037337364964252
  64    -0.0049640320031817
  65    0.0039519610180984
  66    -0.00064820442250809
  67    -0.00064957332219494
  68    0.00026281295433747
  69    0.0010283997437094
  70    0.00013511412101075
  71    -0.0015977762091886
  72    0.0015193408199177
  73     0.001025864273714
  74    0.0026016616126869
  75    -0.0055878062190646
  76    -0.00021499333743907
  77    -0.001085315469912
  78    0.0002606630020641
  79    0.00015190355182457
  80    0.0011420052399922
  81    0.00072712927189838
  82    -0.0022119066641248
  83    -0.0026337892472709
  84     0.013554369366253
  85    -0.019967098817919
  86     -0.02636066365409
  87     0.010422034610987
  88     0.023295252148112
  89    -0.023126617932595
  90    -0.026803689746999
  91    -0.060031737989182
  92     0.059285437985948
  93    -0.016947869678798
  94    -0.042207844734957
  95     0.045500879337261
  96    -0.00062566137276082
  97    -0.003442427001616
  98    -0.0018329804123932
  99    -0.0012394267250821
 100    0.00091767742366008
 101    -0.0010227412150367
 102    0.0049309254705328
 103    -0.0090912534723387
 104    -0.0065109317376189
 105    -0.0081951064278697
 106     0.007379645419728
 107    0.0038842155046054
 108     0.021243687399991
 109    -0.019367394028578
 110    -0.0098075132623101
 111     0.014529176552469
 112    -0.013704113867937
 113    -0.0088134596580229
 114    -0.00044952233846866
 115    0.00031329577794027
 116    -0.00050162805501534
 117    0.00021808831518719
 118     -0.00116276041129
 119    0.0032232440466151
 120    -0.016181012083151
 121     0.025736637715549
 122     0.029583739777887
 123    -0.0033689774850926
 124      0.03739418236603
 125    -0.018930058186039
 126    0.0087912689772583
 127    -0.095874347594842
 128     0.048534848247146
 129    0.0032722009085879
 130     -0.07110238413739
 131     0.033595256349035
 132    -0.00033361162108151
 133    -3.3843751967711e-05
 134    0.0019386890387914
 135     0.001799817284361
 136    0.0030822405752869
 137    -0.00011286380639093
 138    0.00038939538938305
 139    -0.0016207901415431
 140    0.00070817136400308
 141    0.00016947306500825
 142    -0.0018334788989334
 143      0.00012441570552
 144    -0.00062598662497975
 145    0.0047694466167304
 146    -0.0001082245820525
 147    -0.00026831147994891
 148    0.0056435782645108
 149    -0.0016748083844265
 150    -0.00011055709144939
 151    -5.1154476170173e-05
 152    5.6520559914182e-05
 153    -2.5273130192691e-05
 154    -0.00020102065645554
 155    0.00029809812876502
 156    -0.0013102092600302
 157    0.0032596787105657
 158     0.007444146711904
 159    -0.0033704742824601
 160    -0.00071592260441297
 161     0.000534587314423
 162    0.0093607315486319
 163    0.0015216926640311
 164    -0.0010267954103385
 165    0.0055861872623538
 166    0.0019799378769594
 167    0.00068972463159876
 168    6.8795863066651e-05
 169    2.8226541679376e-05
 170    4.8695091009812e-05
 171    -0.00022996566439354
 172    -2.9338286260378e-05
 173    -0.00052534337394641
 174    0.0021046639030577
 175    -0.006397821525153
 176    -0.0039517154970359
 177    0.0043221759841893
 178    0.0017253957475855
 179     0.001008729052728
 180    -0.011899949423428
 181    -0.0051240877943257
 182    -0.0025816478537286
 183    -0.0064673129818075
 184    -0.0029840856165178
 185    -0.0043905825937234
 186    -0.00026846611358275
 187    2.0842420779296e-05
 188    -8.3276551185608e-05
 189    0.00050987606541719
 190    0.00040685860375603
 Sym= A
 Ene=               3
 Spin= Alpha
 Occup=    1.00000
   1    -0.00061696906285364
   2    -0.0021510617510194
   3    0.0074553315729374
   4    -0.0040409502610398
   5    0.0078847749523231
   6    -0.011138145054843
   7    0.0056133598835924
   8    0.0064626129874001
   9     0.023386186413292
  10    -0.011051525028605
  11    -0.012828321915536
  12    -0.036071365546388
  13     0.021130234107601
  14     0.025038575566923
  15    0.0072322355531774
  16    -0.011587516786704
  17    -0.017500583218278
  18    -0.029137869293706
  19     -0.59773819947322
  20      0.35896700106847
  21      0.10284331679285
  22     -0.31926294631143
  23    -0.011517524460837
  24     -0.28363554841726
  25      0.16978981942095
  26     0.045013927689908
  27     -0.15006878272884
  28    0.0025236070067704
  29    -0.0048891345702529
  30    0.0015878645413374
  31    -0.003192680090871