[Molden Format]
made by pyscf v[2.3.0]
[Atoms] (AU)
Cr   1   24     1.56143912275337    -2.46507591990239    -1.82404491365355
Cr   2   24    -1.56139565905251     2.46513072196000     1.82399011159594
O   3   8     0.00002078698737     0.00002834589187    -0.00002645616574
N   4   7     5.12832174930954    -1.10581670549011    -0.60767356069801
H   5   1     6.65216855026694    -1.66292686427314    -1.66487895135981
H   6   1     5.63710405218294    -1.59213394419468     1.18765885421890
H   7   1     5.20084187906585     0.81566059741989    -0.65509245834172
N   8   7     1.71230729763415    -0.02251608677419    -4.99594076510539
H   9   1     0.29795878723855     1.27247165241550    -4.90823668593820
H   10   1     1.50271021425414    -0.85583806455427    -6.73026148236459
H   11   1     3.34039895052705     0.99863710888315    -5.18656310846864
N   12   7     1.41057094787259    -4.90763575303059     1.34785282752440
H   13   1     1.64193389675534    -6.79355407945465     0.97314659318890
H   14   1    -0.29048681014202    -4.81040367474334     2.24006056107205
H   15   1     2.72468082571676    -4.56691435331926     2.71738081369757
N   16   7    -2.00544350380280    -3.82433513431467    -3.04041437688297
H   17   1    -2.87205678671934    -5.05516478184926    -1.83221042023780
H   18   1    -2.03637832046193    -4.76397121413665    -4.73247136936628
H   19   1    -3.24475802163669    -2.37551046050250    -3.28123540501917
N   20   7     3.37923471211299    -5.33493873459111    -3.94755661599306
H   21   1     4.17102617885350    -4.76109883042731    -5.61685374703210
H   22   1     2.26176595533881    -6.82326057413281    -4.47610923358166
H   23   1     4.85383336053810    -6.19899521806112    -3.03922195969837
N   24   7    -5.12827828560868     1.10587339727385     0.60762064836653
H   25   1    -5.15408816501799    -0.81544705836782     0.54662784797006
H   26   1    -5.69743166898356     1.68113626520945    -1.14337690194197
H   27   1    -6.63528195761783     1.56841410187914     1.73267665553083
N   28   7    -1.71226383393328     0.02257088883181     4.99588785277390
H   29   1    -1.62991523860311     0.86667375415253     6.73575491620870
H   30   1    -0.22416876152653    -1.19157625647512     4.98456461383551
H   31   1    -3.28782110056328    -1.08746368536834     5.11339858210385
N   32   7     2.00548696750367     3.82438993637228     3.04035957482536
H   33   1     2.05186651577887     4.68410571893416     4.77402266739321
H   34   1     2.83712330958063     5.12208376337235     1.87805706574587
H   35   1     3.26582090902109     2.38241174030942     3.19051154350492
N   36   7    -1.41052748417173     4.90769055508820    -1.34790762958202
H   37   1    -1.75003190025884     6.78104976168840    -0.99229329828299
H   38   1    -2.65834387984003     4.49309409198925    -2.75785496783350
H   39   1     0.32278033988471     4.89894112313146    -2.18344058692784
N   40   7    -3.37919124841212     5.33499353664873     3.94750181393545
H   41   1    -2.26357064378777     6.83195331430581     4.45515784003860
H   42   1    -4.15358022727151     4.76963661305810     5.62761006813313
H   43   1    -4.86681766873998     6.18449345978121     3.04686590187224
[GTO]
1 0
 s   21 1.00
               6177194  9.1449998625742e-05
              924929.5  0.00026396999603321
              210486.5  0.00071914998919302
              59620.05  0.0018296899725045
              19450.76  0.0046466099301734
              7022.056   0.011914319820958
              2738.763   0.030519809541366
              1135.814    0.07453103887999
              495.0923     0.1620433775649
              224.7487    0.28541511571094
              105.3836    0.34331784484082
              50.19359     0.2095032468517
              22.24957   0.035214999470809
              10.98265  -0.0022511799661706
              5.383665  0.0015152499772297
              2.343685  -0.0006782599898075
              1.105202  0.00027408999588113
              0.487848  -9.8099998525809e-05
              0.089599  2.3009999654219e-05
              0.033423  -1.6489999752198e-05
              0.013369  5.7699999132917e-06
 s   21 1.00
               6177194  -2.7769999918154e-05
              924929.5  -8.0199999763629e-05
              210486.5  -0.00021880999935511
              59620.05  -0.0005576699983564
              19450.76  -0.0014230599958059
              7022.056  -0.0036713099891797
              2738.763  -0.0095659199718067
              1135.814  -0.024056459929099
              495.0923  -0.056129269834572
              224.7487   -0.11301031966693
              105.3836   -0.17949365947098
              50.19359   -0.14572287957052
              22.24957    0.16918663950136
              10.98265    0.55840244835424
              5.383665    0.39613230883249
              2.343685   0.051446509848373
              1.105202  -0.0014999999955791
              0.487848  0.0012969899961774
              0.089599  -0.00010616999968709
              0.033423  0.0001528199995496
              0.013369  -3.963999988317e-05
 s   21 1.00
               6177194  1.0079999988093e-05
              924929.5  2.9129999965591e-05
              210486.5  7.9499999906092e-05
              59620.05  0.00020252999976076
              19450.76  0.00051769999938848
              7022.056  0.0013340199984242
              2738.763  0.0034920399958751
              1135.814  0.0087805799896281
              495.0923   0.020750769975489
              224.7487   0.042201169950151
              105.3836   0.070030559917278
              50.19359   0.058761689930589
              22.24957  -0.076744979909346
              10.98265   -0.35747655957774
              5.383665   -0.37354083955876
              2.343685     0.2824207596664
              1.105202    0.71155178915949
              0.487848    0.29470992965188
              0.089599  0.0078085799907762
              0.033423  -0.0012027899985792
              0.013369  0.00068621999918941
 s   21 1.00
               6177194  -2.310000005585e-06
              924929.5  -6.6600000161022e-06
              210486.5  -1.8200000044003e-05
              59620.05  -4.6270000111869e-05
              19450.76  -0.00011880000028723
              7022.056  -0.00030397000073492
              2738.763  -0.00080427000194452
              1135.814  -0.0019947100048227
              495.0923  -0.0048067000116214
              224.7487  -0.0095558000231035
              105.3836  -0.016509740039916
              50.19359  -0.012865280031105
              22.24957   0.016070180038854
              10.98265   0.092769040224292
              5.383665   0.088246300213357
              2.343685  -0.071000560171661
              1.105202   -0.28668464069313
              0.487848    -0.1752857604238
              0.089599    0.72504182175297
              0.033423    0.41225293099672
              0.013369   0.012021320029064
 s   21 1.00
               6177194  8.4100000281581e-06
              924929.5  2.4260000081227e-05
              210486.5  6.6560000222854e-05
              59620.05  0.00016766000056135
              19450.76  0.00043756000146503
              7022.056  0.0010916000036549
              2738.763  0.0029932000100217
              1135.814  0.0070975000237637
              495.0923   0.018156880060792
              224.7487   0.033581170112436
              105.3836   0.065395830218957
              50.19359   0.038375990128489
              22.24957  -0.051299970171761
              10.98265   -0.40022297134002
              5.383665   -0.39301662131589
              2.343685      1.066863233572
              1.105202     0.6964698923319
              0.487848    -1.2569113342084
              0.089599   -0.70331414235482
              0.033423    0.99893106334459
              0.013369   0.054654840182994
 p   15 1.00
              6268.921  0.00034187999968459
              1485.118  0.0020059299981494
              481.9146  0.0099592899908118
              183.5142   0.038682989964312
              77.19005    0.11699230989207
              34.65178    0.25830536976169
              16.14846     0.3827325096469
              7.710939      0.302412229721
              3.607154   0.081496609924813
              1.667362  0.0026569299975488
              0.739088  0.0014046999987041
              0.301326  -0.00033585999969014
               0.12053  0.00022457999979281
              0.048212  -0.0001012399999066
              0.019285  3.1999999970478e-05
 p   15 1.00
              6268.921  -0.00012053000095655
              1485.118  -0.00070743000561433
              481.9146  -0.0035428900281172
              183.5142  -0.013907660110374
              77.19005  -0.043443080344774
              34.65178  -0.099412020788957
              16.14846   -0.15756133125044
              7.710939    -0.1068395308479
              3.607154    0.18829086149432
              1.667362     0.4808576738162
              0.739088     0.4041836532077
              0.301326   0.094633910751037
               0.12053  -0.0020946300166235
              0.048212  0.0024225700192261
              0.019285  -0.0006953800055187
 p   15 1.00
              6268.921  -0.00013505000026623
              1485.118  -0.00082498000162634
              481.9146  -0.0039443900077759
              183.5142  -0.016434880032399
              77.19005  -0.049033600096663
              34.65178    -0.1238719502442
              16.14846   -0.16230302031996
              7.710939   -0.17524698034548
              3.607154    0.65753339129624
              1.667362    0.60326583118926
              0.739088   -0.87941767173366
              0.301326   -0.47636239093909
               0.12053     0.3339818906584
              0.048212    0.29650142058451
              0.019285     0.1322446902607
 p   15 1.00
              6268.921  4.8850000112682e-05
              1485.118  0.0002913700006721
              481.9146  0.0014320400033033
              183.5142  0.0057590600132844
              77.19005   0.017653450040721
              34.65178   0.042099960097112
              16.14846   0.062716680144668
              7.710939   0.051749050119369
              3.607154   -0.13643486031471
              1.667362   -0.25003371057675
              0.739088   -0.05614525012951
              0.301326      0.206355540476
               0.12053    0.57433022132481
              0.048212    0.31611596072918
              0.019285   0.039335450090735
 d   10 1.00
              150.8341  0.0012289400036594
              44.99723  0.0097614000290662
              16.96088   0.041520600123634
              7.040154    0.12137564036142
              3.103878    0.24225323072135
              1.375896    0.32842158097793
              0.592282    0.32493682096755
              0.242138    0.23564646070168
              0.091284   0.086382470257218
              0.036514  0.00076526000227869
 d   10 1.00
              150.8341  -0.001441439991627
              44.99723  -0.011512189933128
              16.96088  -0.049557389712131
              7.040154   -0.14046713918405
              3.103878   -0.35236375795319
              1.375896   -0.28713173833211
              0.592282      0.173701608991
              0.242138    0.50597065706092
              0.091284    0.29769651827074
              0.036514   0.040191259766537
 f    6 1.00
                7.7139   0.049887200054754
                3.0575    0.33566733036842
                1.2119    0.51247862056248
                0.4803    0.28739317031543
                0.1904    0.10021389010999
                0.0755   0.017345140019037

2 0
 s   21 1.00
               6177194  9.1449998625742e-05
              924929.5  0.00026396999603321
              210486.5  0.00071914998919302
              59620.05  0.0018296899725045
              19450.76  0.0046466099301734
              7022.056   0.011914319820958
              2738.763   0.030519809541366
              1135.814    0.07453103887999
              495.0923     0.1620433775649
              224.7487    0.28541511571094
              105.3836    0.34331784484082
              50.19359     0.2095032468517
              22.24957   0.035214999470809
              10.98265  -0.0022511799661706
              5.383665  0.0015152499772297
              2.343685  -0.0006782599898075
              1.105202  0.00027408999588113
              0.487848  -9.8099998525809e-05
              0.089599  2.3009999654219e-05
              0.033423  -1.6489999752198e-05
              0.013369  5.7699999132917e-06
 s   21 1.00
               6177194  -2.7769999918154e-05
              924929.5  -8.0199999763629e-05
              210486.5  -0.00021880999935511
              59620.05  -0.0005576699983564
              19450.76  -0.0014230599958059
              7022.056  -0.0036713099891797
              2738.763  -0.0095659199718067
              1135.814  -0.024056459929099
              495.0923  -0.056129269834572
              224.7487   -0.11301031966693
              105.3836   -0.17949365947098
              50.19359   -0.14572287957052
              22.24957    0.16918663950136
              10.98265    0.55840244835424
              5.383665    0.39613230883249
              2.343685   0.051446509848373
              1.105202  -0.0014999999955791
              0.487848  0.0012969899961774
              0.089599  -0.00010616999968709
              0.033423  0.0001528199995496
              0.013369  -3.963999988317e-05
 s   21 1.00
               6177194  1.0079999988093e-05
              924929.5  2.9129999965591e-05
              210486.5  7.9499999906092e-05
              59620.05  0.00020252999976076
              19450.76  0.00051769999938848
              7022.056  0.0013340199984242
              2738.763  0.0034920399958751
              1135.814  0.0087805799896281
              495.0923   0.020750769975489
              224.7487   0.042201169950151
              105.3836   0.070030559917278
              50.19359   0.058761689930589
              22.24957  -0.076744979909346
              10.98265   -0.35747655957774
              5.383665   -0.37354083955876
              2.343685     0.2824207596664
              1.105202    0.71155178915949
              0.487848    0.29470992965188
              0.089599  0.0078085799907762
              0.033423  -0.0012027899985792
              0.013369  0.00068621999918941
 s   21 1.00
               6177194  -2.310000005585e-06
              924929.5  -6.6600000161022e-06
              210486.5  -1.8200000044003e-05
              59620.05  -4.6270000111869e-05
              19450.76  -0.00011880000028723
              7022.056  -0.00030397000073492
              2738.763  -0.00080427000194452
              1135.814  -0.0019947100048227
              495.0923  -0.0048067000116214
              224.7487  -0.0095558000231035
              105.3836  -0.016509740039916
              50.19359  -0.012865280031105
              22.24957   0.016070180038854
              10.98265   0.092769040224292
              5.383665   0.088246300213357
              2.343685  -0.071000560171661
              1.105202   -0.28668464069313
              0.487848    -0.1752857604238
              0.089599    0.72504182175297
              0.033423    0.41225293099672
              0.013369   0.012021320029064
 s   21 1.00
               6177194  8.4100000281581e-06
              924929.5  2.4260000081227e-05
              210486.5  6.6560000222854e-05
              59620.05  0.00016766000056135
              19450.76  0.00043756000146503
              7022.056  0.0010916000036549
              2738.763  0.0029932000100217
              1135.814  0.0070975000237637
              495.0923   0.018156880060792
              224.7487   0.033581170112436
              105.3836   0.065395830218957
              50.19359   0.038375990128489
              22.24957  -0.051299970171761
              10.98265   -0.40022297134002
              5.383665   -0.39301662131589
              2.343685      1.066863233572
              1.105202     0.6964698923319
              0.487848    -1.2569113342084
              0.089599   -0.70331414235482
              0.033423    0.99893106334459
              0.013369   0.054654840182994
 p   15 1.00
              6268.921  0.00034187999968459
              1485.118  0.0020059299981494
              481.9146  0.0099592899908118
              183.5142   0.038682989964312
              77.19005    0.11699230989207
              34.65178    0.25830536976169
              16.14846     0.3827325096469
              7.710939      0.302412229721
              3.607154   0.081496609924813
              1.667362  0.0026569299975488
              0.739088  0.0014046999987041
              0.301326  -0.00033585999969014
               0.12053  0.00022457999979281
              0.048212  -0.0001012399999066
              0.019285  3.1999999970478e-05
 p   15 1.00
              6268.921  -0.00012053000095655
              1485.118  -0.00070743000561433
              481.9146  -0.0035428900281172
              183.5142  -0.013907660110374
              77.19005  -0.043443080344774
              34.65178  -0.099412020788957
              16.14846   -0.15756133125044
              7.710939    -0.1068395308479
              3.607154    0.18829086149432
              1.667362     0.4808576738162
              0.739088     0.4041836532077
              0.301326   0.094633910751037
               0.12053  -0.0020946300166235
              0.048212  0.0024225700192261
              0.019285  -0.0006953800055187
 p   15 1.00
              6268.921  -0.00013505000026623
              1485.118  -0.00082498000162634
              481.9146  -0.0039443900077759
              183.5142  -0.016434880032399
              77.19005  -0.049033600096663
              34.65178    -0.1238719502442
              16.14846   -0.16230302031996
              7.710939   -0.17524698034548
              3.607154    0.65753339129624
              1.667362    0.60326583118926
              0.739088   -0.87941767173366
              0.301326   -0.47636239093909
               0.12053     0.3339818906584
              0.048212    0.29650142058451
              0.019285     0.1322446902607
 p   15 1.00
              6268.921  4.8850000112682e-05
              1485.118  0.0002913700006721
              481.9146  0.0014320400033033
              183.5142  0.0057590600132844
              77.19005   0.017653450040721
              34.65178   0.042099960097112
              16.14846   0.062716680144668
              7.710939   0.051749050119369
              3.607154   -0.13643486031471
              1.667362   -0.25003371057675
              0.739088   -0.05614525012951
              0.301326      0.206355540476
               0.12053    0.57433022132481
              0.048212    0.31611596072918
              0.019285   0.039335450090735
 d   10 1.00
              150.8341  0.0012289400036594
              44.99723  0.0097614000290662
              16.96088   0.041520600123634
              7.040154    0.12137564036142
              3.103878    0.24225323072135
              1.375896    0.32842158097793
              0.592282    0.32493682096755
              0.242138    0.23564646070168
              0.091284   0.086382470257218
              0.036514  0.00076526000227869
 d   10 1.00
              150.8341  -0.001441439991627
              44.99723  -0.011512189933128
              16.96088  -0.049557389712131
              7.040154   -0.14046713918405
              3.103878   -0.35236375795319
              1.375896   -0.28713173833211
              0.592282      0.173701608991
              0.242138    0.50597065706092
              0.091284    0.29769651827074
              0.036514   0.040191259766537
 f    6 1.00
                7.7139   0.049887200054754
                3.0575    0.33566733036842
                1.2119    0.51247862056248
                0.4803    0.28739317031543
                0.1904    0.10021389010999
                0.0755   0.017345140019037

3 0
 s   14 1.00
             105374.95  0.00012386000128961
              15679.24  0.00051201000533097
             3534.5447  0.0021529100224158
             987.36516  0.0085284400887969
             315.97875   0.030180490314235
             111.65428   0.090997020947448
             42.699451    0.21779364226764
             17.395596    0.36862457383806
              7.438309    0.33667073350537
              3.222862   0.096576301005538
              1.253877  0.0021445200223284
              0.495155  0.0011943500124354
              0.191665  0.0005390200056122
              0.067083  0.00021034000219003
 s   14 1.00
             105374.95  -2.8150000076236e-05
              15679.24  -0.00011630000031496
             3534.5447  -0.00049092000132951
             987.36516  -0.0019461600052706
             315.97875  -0.0070053000189718
             111.65428  -0.021678140058709
             42.699451  -0.056412130152776
             17.395596   -0.11270530030523
              7.438309   -0.15891197043037
              3.222862  -0.033550830090863
              1.253877    0.35319028095651
              0.495155    0.55341993149878
              0.191665    0.23018391062339
              0.067083   0.011272670030529
 s   14 1.00
             105374.95  2.6159999812637e-05
              15679.24  0.00010747999923021
             3534.5447  0.0004597199967074
             987.36516  0.0017955499871399
             315.97875  0.0066757399521871
             111.65428   0.020534449852928
             42.699451   0.058286019582544
             17.395596    0.12129690913125
              7.438309    0.22641474837837
              3.222862  -0.042386999696416
              1.253877    -1.0104553727629
              0.495155   -0.15386867889796
              0.191665     0.9934531928847
              0.067083    0.18587253866874
 p    9 1.00
                   200  0.00091730000298931
             46.533367  0.0073771400240407
             14.621809   0.034835150113521
              5.313064    0.11443970037294
              2.102525    0.25549664083262
              0.850223    0.37225574121311
              0.337597    0.33233149108301
              0.128892    0.14008479045651
              0.045112   0.023957840078074
 p    9 1.00
                   200  -0.00087213000535403
             46.533367  -0.0070642400433676
             14.621809   -0.03330489020446
              5.313064   -0.11441275070238
              2.102525   -0.29901068183564
              0.850223   -0.31986054196363
              0.337597    0.20550900126163
              0.128892    0.59359268364408
              0.045112    0.28229027173299
 d    4 1.00
                  3.75    0.13609758017809
                1.3125    0.51401475067263
              0.459375    0.47407125062036
              0.160781    0.08166905010687

4 0
 s   14 1.00
             74761.715  0.00011825999960662
             11123.654  0.0005172899982793
             2512.6857  0.0022666599924603
             703.77729  0.0091452899695794
             225.47879   0.032393429892247
              79.61581   0.097707929674987
             30.237283    0.23170367922927
             12.263622    0.37688988874632
              5.265086    0.31774206894307
              2.333471   0.082113089726862
              0.901856  0.0033120899889828
              0.358336  0.0037208199876232
              0.141093  0.0031654199894706
              0.049383  0.00045957999847127
 s   14 1.00
             74761.715  -2.7070000101538e-05
             11123.654  -0.000118370000444
             2512.6857  -0.00052038000195191
             703.77729  -0.0021029300078879
             225.47879  -0.0075682000283878
              79.61581  -0.023467670088026
             30.237283  -0.060429010226665
             12.263622   -0.11705491043906
              5.265086   -0.15553215058339
              2.333471  -0.024689350092608
              0.901856    0.36250545135973
              0.358336    0.55508450208208
              0.141093    0.21483769080584
              0.049383  0.0089838500336978
 s   14 1.00
             74761.715  1.8759999982508e-05
             11123.654  8.1179999924305e-05
             2512.6857  0.00036589999965882
             703.77729  0.0014430399986545
             225.47879   0.005531839994842
              79.61581   0.017243589983922
             30.237283   0.052795479950772
             12.263622     0.1152881298925
              5.265086    0.23525938978064
              2.333471  -0.048963869954345
              0.901856    -1.0232177390459
              0.358336   -0.14815865986185
              0.141093     1.0215575390475
              0.049383    0.17240182983925
 p    9 1.00
             126.66657  0.0012336299995113
             29.837389  0.0094934099962391
              9.394038   0.042939619982989
              3.405104    0.13629253994601
                  1.35    0.29213624988427
              0.557696    0.38878875984598
              0.232449    0.29468013988326
              0.094264   0.080128759968256
              0.032992  0.00054051999978587
 p    9 1.00
             126.66657  -0.001466229998073
             29.837389  -0.011821479984464
              9.394038  -0.049831259934509
              3.405104   -0.17309041977251
                  1.35   -0.47323707937804
              0.557696    -0.2055113197299
              0.232449    0.59103797922322
              0.094264    0.45117967940703
              0.032992   0.013674719982028
 d    4 1.00
                  2.75    0.14730165047946
                0.9625    0.55021826179092
              0.336875    0.44525604144927
              0.117906   0.049428690160886

5 0
 s    8 1.00
             188.61445  0.00096385000270584
             28.276596  0.0074919600210324
               6.42483   0.037595410105543
              1.815041    0.14339498040256
              0.591063    0.34863630097874
              0.212149    0.43829736123044
              0.079891    0.16510661046351
              0.027962   0.021022870059018
 s    8 1.00
             188.61445  -0.0013118999943633
             28.276596  -0.010345099955552
               6.42483  -0.050495299783044
              1.815041   -0.20738549910896
              0.591063   -0.43508849813062
              0.212149  -0.024729699893747
              0.079891    0.32252598861425
              0.027962    0.70727537696115
 p    4 1.00
                 2.305    0.11279018955834
               0.80675    0.41850752836121
              0.282362    0.47000772815955
              0.098827    0.18262602928488

6 0
 s    8 1.00
             188.61445  0.00096385000270584
             28.276596  0.0074919600210324
               6.42483   0.037595410105543
              1.815041    0.14339498040256
              0.591063    0.34863630097874
              0.212149    0.43829736123044
              0.079891    0.16510661046351
              0.027962   0.021022870059018
 s    8 1.00
             188.61445  -0.0013118999943633
             28.276596  -0.010345099955552
               6.42483  -0.050495299783044
              1.815041   -0.20738549910896
              0.591063   -0.43508849813062
              0.212149  -0.024729699893747
              0.079891    0.32252598861425
              0.027962    0.70727537696115
 p    4 1.00
                 2.305    0.11279018955834
               0.80675    0.41850752836121
              0.282362    0.47000772815955
              0.098827    0.18262602928488

7 0
 s    8 1.00
             188.61445  0.00096385000270584
             28.276596  0.0074919600210324
               6.42483   0.037595410105543
              1.815041    0.14339498040256
              0.591063    0.34863630097874
              0.212149    0.43829736123044
              0.079891    0.16510661046351
              0.027962   0.021022870059018
 s    8 1.00
             188.61445  -0.0013118999943633
             28.276596  -0.010345099955552
               6.42483  -0.050495299783044
              1.815041   -0.20738549910896
              0.591063   -0.43508849813062
              0.212149  -0.024729699893747
              0.079891    0.32252598861425
              0.027962    0.70727537696115
 p    4 1.00
                 2.305    0.11279018955834
               0.80675    0.41850752836121
              0.282362    0.47000772815955
              0.098827    0.18262602928488

8 0
 s   14 1.00
             74761.715  0.00011825999960662
             11123.654  0.0005172899982793
             2512.6857  0.0022666599924603
             703.77729  0.0091452899695794
             225.47879   0.032393429892247
              79.61581   0.097707929674987
             30.237283    0.23170367922927
             12.263622    0.37688988874632
              5.265086    0.31774206894307
              2.333471   0.082113089726862
              0.901856  0.0033120899889828
              0.358336  0.0037208199876232
              0.141093  0.0031654199894706
              0.049383  0.00045957999847127
 s   14 1.00
             74761.715  -2.7070000101538e-05
             11123.654  -0.000118370000444
             2512.6857  -0.00052038000195191
             703.77729  -0.0021029300078879
             225.47879  -0.0075682000283878
              79.61581  -0.023467670088026
             30.237283  -0.060429010226665
             12.263622   -0.11705491043906
              5.265086   -0.15553215058339
              2.333471  -0.024689350092608
              0.901856    0.36250545135973
              0.358336    0.55508450208208
              0.141093    0.21483769080584
              0.049383  0.0089838500336978
 s   14 1.00
             74761.715  1.8759999982508e-05
             11123.654  8.1179999924305e-05
             2512.6857  0.00036589999965882
             703.77729  0.0014430399986545