[Molden Format]
made by pyscf v[2.4.0]
[Atoms] (AU)
V   1   23    -5.95452670160311    -0.15244795154490    -0.00188227035754
V   2   23     5.95471630801837    -0.15225897893245     0.00151923666668
C   3   6    -0.00056660093597    -0.22236781815381    -0.00055946207034
H   4   1    -0.00056660093597    -2.25873668998512    -0.00074843468280
C   5   6    -1.33490221749136     3.72904950831173     0.05065211590537
C   6   6     1.33320209778205     3.72904950831173    -0.05101514959623
C   7   6    -2.67074961494640     6.01164969417387     0.13720157241045
H   8   1    -4.70995307596456     6.03659407901813     0.25323075645874
C   9   6     2.66923846784955     6.01146072156141    -0.13737563348885
H   10   1     4.70844192886771     6.03602716118076    -0.25321584492469
C   11   6    -1.34737440991349     8.30615515462077     0.07805314471156
C   12   6     1.34624120804155     8.30615515462077    -0.07784926056505
C   13   6    -2.78148756584591    10.77224774717818     0.16970486175297
H   14   1    -2.22968753747291    11.91968945001408     1.80545179517649
H   15   1    -4.81974616380179    10.45571862131353     0.28573404580126
H   16   1    -2.41866014992942    11.93140575198638    -1.51026166298537
C   17   6     2.78035436397398    10.77205877456572    -0.16912303238155
H   18   1     2.22855433560098    11.91987842262654    -1.80430304796770
H   19   1     4.81880193454231    10.45534067608861    -0.28571913426721
H   20   1     2.41809386589485    11.93064986153656     1.51122143758171
N   21   7    -2.18206643913387     1.16676985601396     0.04895136239326
N   22   7     2.18036631942457     1.16676985601396    -0.04988131392149
C   23   6   -10.27160603317199    -4.08307829064023    -0.25529454366171
C   24   6   -12.74015526969133    -5.02113833887433    -0.17800474516700
H   25   1   -13.12584837171506    -7.01007508497906    -0.38549667364425
C   26   6   -14.75460331847769    -3.36517133591797     0.17669684841386
H   27   1   -16.67702170499772    -4.06852739948108     0.24793952330996
C   28   6   -14.26535322482779    -0.79344305299737     0.43180987523014
H   29   1   -15.82891262029292     0.48382283459615     0.69882817663119
C   30   6   -11.77469419265104     0.08868110194960     0.33524487026487
C   31   6    -7.99221838172161    -5.89400283581093    -0.62983826155051
C   32   6    -8.95219925300067    -8.64147564831607    -0.94239896253845
H   33   1    -7.37484485682621    -9.94009544111719    -1.23455062141133
H   34   1   -10.22247315393330    -8.81249586258921    -2.55660301815705
H   35   1    -9.99041478583671    -9.26867574905922     0.72377256147544
C   36   6   -11.19020190232307     2.94972645454110     0.57524008808463
C   37   6   -13.68917572944791     4.44827927132120     0.85869900676939
H   38   1   -14.72380078264728     3.86775540585481     2.54490162771879
H   39   1   -14.92713531365048     4.15310405066413    -0.76306395333235
H   40   1   -13.31841146380824     6.47179800550546     1.01176682285916
C   41   6    -6.27351247142969    -5.73280919738553     1.74157905216619
C   42   6    -5.88706347895614    -7.82435807205414     3.32516954413219
H   43   1    -6.73555050888585    -9.62810165795149     2.90111500219931
C   44   6    -4.41572271836978    -7.60363806070494     5.50610246491225
H   45   1    -4.16646784253965    -9.21708622585859     6.74330615866499
C   46   6    -3.29492615389024    -5.28078670838957     6.05544584932331
H   47   1    -2.14521677970486    -5.01887066752485     7.72671963388865
C   48   6    -3.70518569553332    -3.27918879725026     4.40382521645345
H   49   1    -2.84422647318147    -1.46278404631832     4.73944057617620
C   50   6    -6.51350768924945    -5.11656950816487    -3.03791626208377
C   51   6    -6.41750960212155    -6.67011335516980    -5.18577897526442
H   52   1    -7.38693910402342    -8.46251858431976    -5.22735295000485
C   53   6    -5.07826069764229    -5.91119934354447    -7.33118504448313
H   54   1    -5.06163110774612    -7.09586865103431    -9.00264780166093
C   55   6    -3.76905843854361    -3.62122922579653    -7.27354839768390
H   56   1    -2.69890653420242    -2.96133686309841    -8.88945320679948
C   57   6    -3.90852022653652    -2.16595113726898    -5.09034780597388
H   58   1    -2.89184757152051    -0.40453741656188    -4.94181533258307
C   59   6    -9.79256046059475     3.85169273379600    -1.84531010487076
C   60   6   -10.85005119990136     5.65562529230581    -3.47444299685830
H   61   1   -12.68592012991631     6.45649122389649    -3.09876544329476
C   62   6    -9.54084894080268     6.45592430605912    -5.62476235400088
H   63   1   -10.37969836749711     7.83712513050372    -6.88350892557367
C   64   6    -7.14221957089225     5.46778651552405    -6.09662696730478
H   65   1    -6.03956437720854     6.06380613521187    -7.71423252993247
C   66   6    -6.18034897348863     3.69012115014569    -4.41949503175328
H   67   1    -4.30347298657061     2.94160063220547    -4.67800956559378
C   68   6    -9.51099126803456     3.42537052009413     2.93456315460411
C   69   6   -10.33358905005772     4.92335641903685     4.96148339581260
H   70   1   -12.19270161140483     5.75804844825724     4.96016058752540
C   71   6    -8.75037650289712     5.37216637362105     7.02752096779958
H   72   1    -9.40554455028382     6.51904115861959     8.59334803461419
C   73   6    -6.31886589841925     4.34906864978153     7.01750541933938
H   74   1    -5.01136439283269     4.69073113310289     8.55423070383569
C   75   6    -5.60001408063470     2.87810583442009     4.96450695761190
H   76   1    -3.71161076435684     2.11843593234493     4.83902914294078
N   77   7    -9.80408778995460    -1.55367987290990     0.00945608638985
N   78   7    -5.17973899053143    -3.46438195745763     2.30868586214816
N   79   7    -5.29954762682886    -2.84115028157607    -3.03867215253359
N   80   7    -7.47084294395411     2.84598049030248    -2.36252814516421
N   81   7    -7.15790429772614     2.36731286295015     2.98426295168017
C   82   6    11.77469482645385     0.08868110194960    -0.33541893134327
C   83   6    14.26535385863060    -0.79363202560983    -0.43217290892100
H   84   1    15.82891325409573     0.48363386198370    -0.69938018293450
C   85   6    14.75460395228049    -3.36517133591797    -0.17705988210472
H   86   1    16.67702233880053    -4.06871637209354    -0.24849152961328
C   87   6    12.74015590349414    -5.02113833887433     0.17801965670105
H   88   1    13.12584900551787    -7.01007508497906     0.38551158517830
C   89   6    10.27160666697480    -4.08307829064023     0.25549842780822
C   90   6    11.19039150873833     2.94991542715356    -0.57522517655058
C   91   6    13.68936533586317     4.44809029870874    -0.85868409523534
H   92   1    14.72399038906254     3.86756643324235    -2.54488671618474
H   93   1    14.92732492006574     4.15272610543922     0.76288989225394
H   94   1    13.31879004283596     6.47179800550546    -1.01175191132511
C   95   6     7.99221901552442    -5.89400283581093     0.63023111830947
C   96   6     8.95219988680347    -8.64128667570362     0.94335873714990
H   97   1    10.22266276034856    -8.81211791736430     2.55737382014092
H   98   1     9.99022644702706    -9.26867574905922    -0.72300175949157
H   99   1     7.37484549062901    -9.93990646850473     1.23588834123258
C   100   6     9.51136984706227     3.42555949270658    -2.93473721568252
C   101   6    10.33396762908544     4.92373436426176    -4.96146848427854
H   102   1    12.19326916304501     5.75823742086970    -4.96014567599135
C   103   6     8.75094405453729     5.37254431884597    -7.02769502887798
H   104   1     9.40630107453645     6.51941910384450    -8.59333312308014
C   105   6     6.31962242267188     4.34963556761890    -7.01786845303024
H   106   1     5.01212091708532     4.69129805094026    -8.55459373752655
C   107   6     5.60039265966242     2.87867275225745    -4.96486999130276
H   108   1     3.71198934338455     2.11900285018230    -4.83958114924410
C   109   6     9.79275006701001     3.85188170640846     1.84513604379235
C   110   6    10.85042977892907     5.65543631969336     3.47464688100481
H   111   1    12.68648768155649     6.45611327867157     3.09915830005373
C   112   6     9.54141649244286     6.45592430605912     5.62496623814739
H   113   1    10.38045489174974     7.83674718527881     6.88390178233263
C   114   6     7.14240917730751     5.46797548813650     6.09664187883883
H   115   1     6.04013192884871     6.06418408043678     7.71424744146652
C   116   6     6.18053857990389     3.69068806798306     4.41932097067488
H   117   1     4.30347362037342     2.94216755004284     4.67783550451538
C   118   6     6.27351310523249    -5.73299816999799    -1.74099722279477
C   119   6     5.88706411275894    -7.82492498989151    -3.32439874256783
H   120   1     6.73517319746374    -9.62866857578886    -2.89977728237806
C   121   6     4.41591232478504    -7.60439395115477    -5.50552063554083
H   122   1     4.16684642156736    -9.21803108892088    -6.74253535668111
C   123   6     3.29587165075533    -5.28154259883940    -6.05561991040171
H   124   1     2.14654022179486    -5.01962655797468    -7.72746061280443
C   125   6     3.70594221978594    -3.27956674247517    -4.40437722275676
H   126   1     2.84554991527147    -1.46316199154323    -4.74055950031689
C   127   6     6.51350832305226    -5.11619156293995     3.03830911884273
C   128   6     6.41769920853681    -6.66916849210752     5.18654977724829
H   129   1     7.38750665566360    -8.46157372125748     5.22850169721364
C   130   6     5.07863927667001    -5.91006550786974     7.33195584646701
H   131   1     5.06238763199875    -7.09435687013466     9.00360757625726
C   132   6     3.76905907234642    -3.62009539012179     7.27375228183041
H   133   1     2.69909614061768    -2.96001405481122     8.88984606355845
C   134   6     3.90833188772686    -2.16519524681915     5.09036271750793
H   135   1     2.89165923271086    -0.40397049872451     4.94145229889221
N   136   7     9.80427739636986    -1.55367987290990    -0.00944117485580
N   137   7     7.15809390414140     2.36769080817506    -2.98462598537103
N   138   7     7.47084357775692     2.84635843552739     2.36235408408581
N   139   7     5.17992859694669    -3.46475990268255    -2.30885992322657
N   140   7     5.29917031540675    -2.84096130896362     3.03887603668010
[GTO]
1 0
 s    6 1.00
              47354.33  0.0017845129970233
              7110.787   0.013667539977201
              1619.591   0.067361219887635
              456.3379    0.23305519961124
              146.0606    0.48063159919826
              49.75791    0.34748019942037
 s    6 1.00
              968.1484  0.0024105990106568
              230.2821   0.032072430141786
              74.14591    0.12459420055081
              27.64107   -0.03482177015394
              11.11475   -0.61673740272647
              4.543113   -0.45098440199371
 s    6 1.00
               37.6405  -0.0032331993840472
              12.28238    0.07130744847007
              5.233366    0.25438203021611
               2.20895   -0.29338873484942
               0.91788   -0.74156958808542
              0.363412   -0.19094102268043
 s    3 1.00
              1.392781   0.061397021327015
              0.543913    0.30611295675828
              0.091476    -1.1548898368595
 s    1 1.00
              0.034312                   1
 p    6 1.00
              968.1484  0.0039950051740929
              230.2821   0.031040611352677
              74.14591    0.13477470587316
              27.64107    0.34372791497885
              11.11475    0.46287592017104
              4.543113    0.21355470930621
 p    6 1.00
               37.6405  -0.0064940560980384
              12.28238  -0.027534530415679
              5.233366   0.055162840832774
               2.20895      0.387967205857
               0.91788    0.50902580768458
              0.363412    0.18038400272319
 p    3 1.00
              1.392781   -0.18912649183638
              0.543913   0.080054526544456
              0.091476    0.98773985736433
 p    1 1.00
              0.034312                   1
 d    3 1.00
              16.05025   0.085998991663228
              4.160063    0.38029960735503
              1.243265    0.71276591378496
 d    1 1.00
              0.344277                   1

2 0
 s    6 1.00
              47354.33  0.0017845129970233
              7110.787   0.013667539977201
              1619.591   0.067361219887635
              456.3379    0.23305519961124
              146.0606    0.48063159919826
              49.75791    0.34748019942037
 s    6 1.00
              968.1484  0.0024105990106568
              230.2821   0.032072430141786
              74.14591    0.12459420055081
              27.64107   -0.03482177015394
              11.11475   -0.61673740272647
              4.543113   -0.45098440199371
 s    6 1.00
               37.6405  -0.0032331993840472
              12.28238    0.07130744847007
              5.233366    0.25438203021611
               2.20895   -0.29338873484942
               0.91788   -0.74156958808542
              0.363412   -0.19094102268043
 s    3 1.00
              1.392781   0.061397021327015
              0.543913    0.30611295675828
              0.091476    -1.1548898368595
 s    1 1.00
              0.034312                   1
 p    6 1.00
              968.1484  0.0039950051740929
              230.2821   0.031040611352677
              74.14591    0.13477470587316
              27.64107    0.34372791497885
              11.11475    0.46287592017104
              4.543113    0.21355470930621
 p    6 1.00
               37.6405  -0.0064940560980384
              12.28238  -0.027534530415679
              5.233366   0.055162840832774
               2.20895      0.387967205857
               0.91788    0.50902580768458
              0.363412    0.18038400272319
 p    3 1.00
              1.392781   -0.18912649183638
              0.543913   0.080054526544456
              0.091476    0.98773985736433
 p    1 1.00
              0.034312                   1
 d    3 1.00
              16.05025   0.085998991663228
              4.160063    0.38029960735503
              1.243265    0.71276591378496
 d    1 1.00
              0.344277                   1

3 0
 s    6 1.00
             3047.5249  0.0018347001629433
             457.36951    0.01403730124668
             103.94869   0.068842606114048
             29.210155    0.23218442062076
              9.286663    0.46794134155879
              3.163927    0.36231203217765
 s    3 1.00
             7.8682724   -0.11933240861517
             1.8812885   -0.16085421161283
             0.5442493     1.1434564825515
 s    1 1.00
             0.1687144                   1
 p    3 1.00
             7.8682724   0.068999095584993
             1.8812885    0.31642397975315
             0.5442493    0.74430825237435
 p    1 1.00
             0.1687144                   1

4 0
 s    3 1.00
             18.731137    0.03349459952309
             2.8253937    0.23472694665786
             0.6401217    0.81375731841339
 s    1 1.00
             0.1612778                   1

5 0
 s    6 1.00
             3047.5249  0.0018347001629433
             457.36951    0.01403730124668
             103.94869   0.068842606114048
             29.210155    0.23218442062076
              9.286663    0.46794134155879
              3.163927    0.36231203217765
 s    3 1.00
             7.8682724   -0.11933240861517
             1.8812885   -0.16085421161283
             0.5442493     1.1434564825515
 s    1 1.00
             0.1687144                   1
 p    3 1.00
             7.8682724   0.068999095584993
             1.8812885    0.31642397975315
             0.5442493    0.74430825237435
 p    1 1.00
             0.1687144                   1

6 0
 s    6 1.00
             3047.5249  0.0018347001629433
             457.36951    0.01403730124668
             103.94869   0.068842606114048
             29.210155    0.23218442062076
              9.286663    0.46794134155879
              3.163927    0.36231203217765
 s    3 1.00
             7.8682724   -0.11933240861517
             1.8812885   -0.16085421161283
             0.5442493     1.1434564825515
 s    1 1.00
             0.1687144                   1
 p    3 1.00
             7.8682724   0.068999095584993
             1.8812885    0.31642397975315
             0.5442493    0.74430825237435
 p    1 1.00
             0.1687144                   1

7 0
 s    6 1.00
             3047.5249  0.0018347001629433
             457.36951    0.01403730124668
             103.94869   0.068842606114048
             29.210155    0.23218442062076
              9.286663    0.46794134155879
              3.163927    0.36231203217765
 s    3 1.00
             7.8682724   -0.11933240861517
             1.8812885   -0.16085421161283
             0.5442493     1.1434564825515
 s    1 1.00
             0.1687144                   1
 p    3 1.00
             7.8682724   0.068999095584993
             1.8812885    0.31642397975315
             0.5442493    0.74430825237435
 p    1 1.00
             0.1687144                   1

8 0
 s    3 1.00
             18.731137    0.03349459952309
             2.8253937    0.23472694665786
             0.6401217    0.81375731841339
 s    1 1.00
             0.1612778                   1

9 0
 s    6 1.00
             3047.5249  0.0018347001629433
             457.36951    0.01403730124668
             103.94869   0.068842606114048
             29.210155    0.23218442062076
              9.286663    0.46794134155879
              3.163927    0.36231203217765
 s    3 1.00
             7.8682724   -0.11933240861517
             1.8812885   -0.16085421161283
             0.5442493     1.1434564825515
 s    1 1.00
             0.1687144                   1
 p    3 1.00
             7.8682724   0.068999095584993
             1.8812885    0.31642397975315
             0.5442493    0.74430825237435
 p    1 1.00
             0.1687144                   1

10 0
 s    3 1.00
             18.731137    0.03349459952309
             2.8253937    0.23472694665786
             0.6401217    0.81375731841339
 s    1 1.00
             0.1612778                   1

11 0
 s    6 1.00
             3047.5249  0.0018347001629433
             457.36951    0.01403730124668
             103.94869   0.068842606114048
             29.210155    0.23218442062076
              9.286663    0.46794134155879
              3.163927    0.36231203217765
 s    3 1.00
             7.8682724   -0.11933240861517
             1.8812885   -0.16085421161283
             0.5442493     1.1434564825515
 s    1 1.00
             0.1687144                   1
 p    3 1.00
             7.8682724   0.068999095584993
             1.8812885    0.31642397975315
             0.5442493    0.74430825237435
 p    1 1.00
             0.1687144                   1

12 0
 s    6 1.00
             3047.5249  0.0018347001629433
             457.36951    0.01403730124668
             103.94869   0.068842606114048
             29.210155    0.23218442062076
              9.286663    0.46794134155879
              3.163927    0.36231203217765
 s    3 1.00
             7.8682724   -0.11933240861517
             1.8812885   -0.16085421161283
             0.5442493     1.1434564825515
 s    1 1.00
             0.1687144                   1
 p    3 1.00
             7.8682724   0.068999095584993
             1.8812885    0.31642397975315
             0.5442493    0.74430825237435
 p    1 1.00
             0.1687144                   1

13 0
 s    6 1.00
             3047.5249  0.0018347001629433
             457.36951    0.01403730124668
             103.94869   0.068842606114048
             29.210155    0.23218442062076
              9.286663    0.46794134155879
              3.163927    0.36231203217765
 s    3 1.00
             7.8682724   -0.11933240861517
             1.8812885   -0.16085421161283
             0.5442493     1.1434564825515
 s    1 1.00
             0.1687144                   1
 p    3 1.00
             7.8682724   0.068999095584993
             1.8812885    0.31642397975315
             0.5442493    0.74430825237435
 p    1 1.00
             0.1687144                   1

14 0
 s    3 1.00
             18.731137    0.03349459952309
             2.8253937    0.23472694665786
             0.6401217    0.81375731841339
 s    1 1.00
             0.1612778                   1

15 0
 s    3 1.00
             18.731137    0.03349459952309
             2.8253937    0.23472694665786
             0.6401217    0.81375731841339
 s    1 1.00
             0.1612778                   1

16 0
 s    3 1.00
             18.731137    0.03349459952309
             2.8253937    0.23472694665786
             0.6401217    0.81375731841339
 s    1 1.00
             0.1612778                   1

17 0
 s    6 1.00
             3047.5249  0.0018347001629433
             457.36951    0.01403730124668
             103.94869   0.068842606114048
             29.210155    0.23218442062076
              9.286663    0.46794134155879
              3.163927    0.36231203217765
 s    3 1.00
             7.8682724   -0.11933240861517
             1.8812885   -0.16085421161283
             0.5442493     1.1434564825515
 s    1 1.00
             0.1687144                   1
 p    3 1.00
             7.8682724   0.068999095584993
             1.8812885    0.31642397975315
             0.5442493    0.74430825237435
 p    1 1.00
             0.1687144                   1

18 0
 s    3 1.00
             18.731137    0.03349459952309
             2.8253937    0.23472694665786
             0.6401217    0.81375731841339
 s    1 1.00
             0.1612778                   1

19 0
 s    3 1.00
             18.731137    0.03349459952309
             2.8253937    0.23472694665786
             0.6401217    0.81375731841339
 s    1 1.00
             0.1612778                   1

20 0
 s    3 1.00
             18.731137    0.03349459952309
             2.8253937    0.23472694665786
             0.6401217    0.81375731841339
 s    1 1.00
             0.1612778                   1

21 0
 s    6 1.00
              4173.511  0.0018347994430301
              627.4579   0.013994995751693
              142.9021   0.068586979179805
              40.23433    0.23224092950117
              12.82021    0.46906985760962
              4.390437    0.36045489058067
 s    3 1.00
             11.626358   -0.11496102288211
               2.71628   -0.16911803366165
              0.772218     1.1458522280731
 s    1 1.00
             0.2120313                   1
 p    3 1.00
             11.626358   0.067580023248036
               2.71628    0.32390711142648
              0.772218    0.74089525487354
 p    1 1.00
             0.2120313                   1

22 0
 s    6 1.00
              4173.511  0.0018347994430301
              627.4579   0.013994995751693
              142.9021   0.068586979179805
              40.23433    0.23224092950117
              12.82021    0.46906985760962
              4.390437    0.36045489058067
 s    3 1.00
             11.626358   -0.11496102288211
               2.71628   -0.16911803366165
              0.772218     1.1458522280731
 s    1 1.00
             0.2120313                   1
 p    3 1.00
             11.626358   0.067580023248036
               2.71628    0.32390711142648
              0.772218    0.74089525487354
 p    1 1.00
             0.2120313                   1

23 0
 s    6 1.00
             3047.5249  0.0018347001629433
             457.36951    0.01403730124668
             103.94869   0.068842606114048
             29.210155    0.23218442062076
              9.286663    0.46794134155879
              3.163927    0.36231203217765
 s    3 1.00
             7.8682724   -0.11933240861517
             1.8812885   -0.16085421161283
             0.5442493     1.1434564825515
 s    1 1.00
             0.1687144                   1
 p    3 1.00
             7.8682724   0.068999095584993
             1.8812885    0.31642397975315
             0.5442493    0.74430825237435
 p    1 1.00
             0.1687144                   1

24 0
 s    6 1.00
             3047.5249  0.0018347001629433
             457.36951    0.01403730124668
             103.94869   0.068842606114048
             29.210155    0.23218442062076
              9.286663    0.46794134155879
              3.163927    0.36231203217765
 s    3 1.00
             7.8682724   -0.11933240861517
             1.8812885   -0.16085421161283
             0.5442493     1.1434564825515
 s    1 1.00
             0.1687144                   1
 p    3 1.00
             7.8682724   0.068999095584993
             1.8812885    0.31642397975315
             0.5442493    0.74430825237435
 p    1 1.00
             0.1687144                   1

25 0
 s    3 1.00
             18.731137    0.03349459952309
             2.8253937    0.23472694665786
             0.6401217    0.81375731841339
 s    1 1.00
             0.1612778                   1

26 0
 s    6 1.00
             3047.5249  0.0018347001629433
             457.36951    0.01403730124668
             103.94869   0.068842606114048
             29.210155    0.23218442062076
              9.286663    0.46794134155879
              3.163927    0.36231203217765
 s    3 1.00
             7.8682724   -0.11933240861517
             1.8812885   -0.16085421161283
             0.5442493     1.1434564825515
 s    1 1.00
             0.1687144                   1
 p    3 1.00
             7.8682724   0.068999095584993
             1.8812885    0.31642397975315
             0.5442493    0.74430825237435
 p    1 1.00
             0.1687144                   1

27 0
 s    3 1.00
             18.731137    0.03349459952309
             2.8253937    0.23472694665786
             0.6401217    0.81375731841339
 s    1 1.00
             0.1612778                   1

28 0
 s    6 1.00
             3047.5249  0.0018347001629433
             457.36951    0.01403730124668
             103.94869   0.068842606114048
             29.210155    0.23218442062076
              9.286663    0.46794134155879
              3.163927    0.36231203217765
 s    3 1.00
             7.8682724   -0.11933240861517
             1.8812885   -0.16085421161283
             0.5442493     1.1434564825515
 s    1 1.00
             0.1687144                   1
 p    3 1.00
             7.8682724   0.068999095584993
             1.8812885    0.31642397975315
             0.5442493    0.74430825237435
 p    1 1.00
             0.1687144                   1

29 0
 s    3 1.00
             18.731137    0.03349459952309
             2.8253937    0.23472694665786
             0.6401217    0.81375731841339
 s    1 1.00
             0.1612778                   1

30 0
 s    6 1.00
             3047.5249  0.0018347001629433
             457.36951    0.01403730124668
             103.94869   0.068842606114048
             29.210155    0.23218442062076
              9.286663    0.46794134155879
              3.163927    0.36231203217765
 s    3 1.00
             7.8682724   -0.11933240861517
             1.8812885   -0.16085421161283
             0.5442493     1.1434564825515
 s    1 1.00
             0.1687144                   1
 p    3 1.00
             7.8682724   0.068999095584993
             1.8812885    0.31642397975315
             0.5442493    0.74430825237435
 p    1 1.00
             0.1687144                   1

31 0
 s    6 1.00
             3047.5249  0.0018347001629433
             457.36951    0.01403730124668
             103.94869   0.068842606114048
             29.210155    0.23218442062076
              9.286663    0.46794134155879
              3.163927    0.36231203217765
 s    3 1.00
             7.8682724   -0.11933240861517
             1.8812885   -0.16085421161283
             0.5442493     1.1434564825515
 s    1 1.00
             0.1687144                   1
 p    3 1.00
             7.8682724   0.068999095584993
             1.8812885    0.31642397975315
             0.5442493    0.74430825237435
 p    1 1.00
             0.1687144                   1

32 0
 s    6 1.00
             3047.5249  0.0018347001629433
             457.36951    0.01403730124668
             103.94869   0.068842606114048
             29.210155    0.23218442062076
              9.286663    0.46794134155879
              3.163927    0.36231203217765
 s    3 1.00
             7.8682724   -0.11933240861517
             1.8812885   -0.16085421161283
             0.5442493     1.1434564825515
 s    1 1.00
             0.1687144                   1
 p    3 1.00
             7.8682724   0.068999095584993
             1.8812885    0.31642397975315
             0.5442493    0.74430825237435
 p    1 1.00
             0.1687144                   1

33 0
 s    3 1.00
             18.731137    0.03349459952309
             2.8253937    0.23472694665786
             0.6401217    0.81375731841339
 s    1 1.00
             0.1612778                   1

34 0
 s    3 1.00
             18.731137    0.03349459952309
             2.8253937    0.23472694665786
             0.6401217    0.81375731841339
 s    1 1.00
             0.1612778                   1

35 0
 s    3 1.00
             18.731137    0.03349459952309
             2.8253937    0.23472694665786
             0.6401217    0.81375731841339
 s    1 1.00
             0.1612778                   1

36 0
 s    6 1.00
             3047.5249  0.0018347001629433
             457.36951    0.01403730124668
             103.94869   0.068842606114048
             29.210155    0.23218442062076
              9.286663    0.46794134155879
              3.163927    0.36231203217765
 s    3 1.00
             7.8682724   -0.11933240861517
             1.8812885   -0.16085421161283
             0.5442493     1.1434564825515
 s    1 1.00