[Molden Format]
made by pyscf v[2.1.1]
[Atoms] (AU)
Cr   1   24     1.56143912275337    -2.46507591990239    -1.82404491365355
Cr   2   24    -1.56139565905251     2.46513072196000     1.82399011159594
O   3   8     0.00002078698737     0.00002834589187    -0.00002645616574
N   4   7     5.12832174930954    -1.10581670549011    -0.60767356069801
H   5   1     6.65216855026694    -1.66292686427314    -1.66487895135981
H   6   1     5.63710405218294    -1.59213394419468     1.18765885421890
H   7   1     5.20084187906585     0.81566059741989    -0.65509245834172
N   8   7     1.71230729763415    -0.02251608677419    -4.99594076510539
H   9   1     0.29795878723855     1.27247165241550    -4.90823668593820
H   10   1     1.50271021425414    -0.85583806455427    -6.73026148236459
H   11   1     3.34039895052705     0.99863710888315    -5.18656310846864
N   12   7     1.41057094787259    -4.90763575303059     1.34785282752440
H   13   1     1.64193389675534    -6.79355407945465     0.97314659318890
H   14   1    -0.29048681014202    -4.81040367474334     2.24006056107205
H   15   1     2.72468082571676    -4.56691435331926     2.71738081369757
N   16   7    -2.00544350380280    -3.82433513431467    -3.04041437688297
H   17   1    -2.87205678671934    -5.05516478184926    -1.83221042023780
H   18   1    -2.03637832046193    -4.76397121413665    -4.73247136936628
H   19   1    -3.24475802163669    -2.37551046050250    -3.28123540501917
N   20   7     3.37923471211299    -5.33493873459111    -3.94755661599306
H   21   1     4.17102617885350    -4.76109883042731    -5.61685374703210
H   22   1     2.26176595533881    -6.82326057413281    -4.47610923358166
H   23   1     4.85383336053810    -6.19899521806112    -3.03922195969837
N   24   7    -5.12827828560868     1.10587339727385     0.60762064836653
H   25   1    -5.15408816501799    -0.81544705836782     0.54662784797006
H   26   1    -5.69743166898356     1.68113626520945    -1.14337690194197
H   27   1    -6.63528195761783     1.56841410187914     1.73267665553083
N   28   7    -1.71226383393328     0.02257088883181     4.99588785277390
H   29   1    -1.62991523860311     0.86667375415253     6.73575491620870
H   30   1    -0.22416876152653    -1.19157625647512     4.98456461383551
H   31   1    -3.28782110056328    -1.08746368536834     5.11339858210385
N   32   7     2.00548696750367     3.82438993637228     3.04035957482536
H   33   1     2.05186651577887     4.68410571893416     4.77402266739321
H   34   1     2.83712330958063     5.12208376337235     1.87805706574587
H   35   1     3.26582090902109     2.38241174030942     3.19051154350492
N   36   7    -1.41052748417173     4.90769055508820    -1.34790762958202
H   37   1    -1.75003190025884     6.78104976168840    -0.99229329828299
H   38   1    -2.65834387984003     4.49309409198925    -2.75785496783350
H   39   1     0.32278033988471     4.89894112313146    -2.18344058692784
N   40   7    -3.37919124841212     5.33499353664873     3.94750181393545
H   41   1    -2.26357064378777     6.83195331430581     4.45515784003860
H   42   1    -4.15358022727151     4.76963661305810     5.62761006813313
H   43   1    -4.86681766873998     6.18449345978121     3.04686590187224
[GTO]
1 0
 s    6 1.00
          51528.086349  0.0017695545768669
          7737.2103487   0.013556436258096
           1760.374847   0.067162645785071
          496.87706544    0.23295905918518
          161.46520598    0.47040576982722
          55.466352268    0.35733072606876
 s    3 1.00
          107.54732999   -0.10605255446629
          12.408671897    0.62543981484169
          5.0423628826    0.44878820793655
 s    3 1.00
          8.5461640165   -0.21819012081133
          1.3900441221    0.70422525667731
         0.56066602876    0.42488555412558
 s    1 1.00
        0.071483705972                   1
 s    1 1.00
        0.028250687604                   1
 p    5 1.00
          640.48536096  0.0093555063746755
          150.69711194   0.068993338492216
          47.503755296     0.2634118959318
          16.934120165    0.51034501651775
           6.240968059    0.33195512953954
 p    3 1.00
          3.0885463206    0.32917682676976
          1.1791047769    0.55491385190365
         0.43369774432    0.23818412855984
 p    1 1.00
              0.120675                   1
 d    4 1.00
          27.559479426   0.036950140313562
          7.4687020327    0.18821519783039
          2.4345903574    0.44641244239929
         0.78244754808     0.5681617303244
 d    1 1.00
         0.21995774311                   1
 f    1 1.00
                 1.147                   1

2 0
 s    6 1.00
          51528.086349  0.0017695545768669
          7737.2103487   0.013556436258096
           1760.374847   0.067162645785071
          496.87706544    0.23295905918518
          161.46520598    0.47040576982722
          55.466352268    0.35733072606876
 s    3 1.00
          107.54732999   -0.10605255446629
          12.408671897    0.62543981484169
          5.0423628826    0.44878820793655
 s    3 1.00
          8.5461640165   -0.21819012081133
          1.3900441221    0.70422525667731
         0.56066602876    0.42488555412558
 s    1 1.00
        0.071483705972                   1
 s    1 1.00
        0.028250687604                   1
 p    5 1.00
          640.48536096  0.0093555063746755
          150.69711194   0.068993338492216
          47.503755296     0.2634118959318
          16.934120165    0.51034501651775
           6.240968059    0.33195512953954
 p    3 1.00
          3.0885463206    0.32917682676976
          1.1791047769    0.55491385190365
         0.43369774432    0.23818412855984
 p    1 1.00
              0.120675                   1
 d    4 1.00
          27.559479426   0.036950140313562
          7.4687020327    0.18821519783039
          2.4345903574    0.44641244239929
         0.78244754808     0.5681617303244
 d    1 1.00
         0.21995774311                   1
 f    1 1.00
                 1.147                   1

3 0
 s    5 1.00
          2266.1767785  -0.0053893503921743
          340.87010191   -0.04023472138896
          77.363135167   -0.18008184205526
           21.47964494   -0.46828857657651
          6.6589433124   -0.44692617160187
 s    1 1.00
         0.80975975668                   1
 s    1 1.00
         0.25530772234                   1
 p    3 1.00
          17.721504317   0.062630248763161
           3.863550544    0.33331138482352
          1.0480920883    0.74148638308122
 p    1 1.00
         0.27641544411                   1
 d    1 1.00
                   1.2                   1

4 0
 s    5 1.00
          1712.8415853  -0.0054477995804909
          257.64812677  -0.040627174632423
          58.458245853   -0.18111962250584
          16.198367905   -0.46843975563173
          5.0052600809   -0.44616846289231
 s    1 1.00
         0.58731856571                   1
 s    1 1.00
         0.18764592253                   1
 p    3 1.00
          13.571470233  -0.058848116969522
          2.9257372874   -0.32024624762471
         0.79927750754   -0.75328226520436
 p    1 1.00
         0.21954348034                   1
 d    1 1.00
                     1                   1

5 0
 s    3 1.00
             13.010701   0.033485484812989
             1.9622572    0.23472187088125
            0.44453796    0.81377028525955
 s    1 1.00
            0.12194962                   1
 p    1 1.00
                   0.8                   1

6 0
 s    3 1.00
             13.010701   0.033485484812989
             1.9622572    0.23472187088125
            0.44453796    0.81377028525955
 s    1 1.00
            0.12194962                   1
 p    1 1.00
                   0.8                   1

7 0
 s    3 1.00
             13.010701   0.033485484812989
             1.9622572    0.23472187088125
            0.44453796    0.81377028525955
 s    1 1.00
            0.12194962                   1
 p    1 1.00
                   0.8                   1

8 0
 s    5 1.00
          1712.8415853  -0.0054477995804909
          257.64812677  -0.040627174632423
          58.458245853   -0.18111962250584
          16.198367905   -0.46843975563173
          5.0052600809   -0.44616846289231
 s    1 1.00
         0.58731856571                   1
 s    1 1.00
         0.18764592253                   1
 p    3 1.00
          13.571470233  -0.058848116969522
          2.9257372874   -0.32024624762471
         0.79927750754   -0.75328226520436
 p    1 1.00
         0.21954348034                   1
 d    1 1.00
                     1                   1

9 0
 s    3 1.00
             13.010701   0.033485484812989
             1.9622572    0.23472187088125
            0.44453796    0.81377028525955
 s    1 1.00
            0.12194962                   1
 p    1 1.00
                   0.8                   1

10 0
 s    3 1.00
             13.010701   0.033485484812989
             1.9622572    0.23472187088125
            0.44453796    0.81377028525955
 s    1 1.00
            0.12194962                   1
 p    1 1.00
                   0.8                   1

11 0
 s    3 1.00
             13.010701   0.033485484812989
             1.9622572    0.23472187088125
            0.44453796    0.81377028525955
 s    1 1.00
            0.12194962                   1
 p    1 1.00
                   0.8                   1

12 0
 s    5 1.00
          1712.8415853  -0.0054477995804909
          257.64812677  -0.040627174632423
          58.458245853   -0.18111962250584
          16.198367905   -0.46843975563173
          5.0052600809   -0.44616846289231
 s    1 1.00
         0.58731856571                   1
 s    1 1.00
         0.18764592253                   1
 p    3 1.00
          13.571470233  -0.058848116969522
          2.9257372874   -0.32024624762471
         0.79927750754   -0.75328226520436
 p    1 1.00
         0.21954348034                   1
 d    1 1.00
                     1                   1

13 0
 s    3 1.00
             13.010701   0.033485484812989
             1.9622572    0.23472187088125
            0.44453796    0.81377028525955
 s    1 1.00
            0.12194962                   1
 p    1 1.00
                   0.8                   1

14 0
 s    3 1.00
             13.010701   0.033485484812989
             1.9622572    0.23472187088125
            0.44453796    0.81377028525955
 s    1 1.00
            0.12194962                   1
 p    1 1.00
                   0.8                   1

15 0
 s    3 1.00
             13.010701   0.033485484812989
             1.9622572    0.23472187088125
            0.44453796    0.81377028525955
 s    1 1.00
            0.12194962                   1
 p    1 1.00
                   0.8                   1

16 0
 s    5 1.00
          1712.8415853  -0.0054477995804909
          257.64812677  -0.040627174632423
          58.458245853   -0.18111962250584
          16.198367905   -0.46843975563173
          5.0052600809   -0.44616846289231
 s    1 1.00
         0.58731856571                   1
 s    1 1.00
         0.18764592253                   1
 p    3 1.00
          13.571470233  -0.058848116969522
          2.9257372874   -0.32024624762471
         0.79927750754   -0.75328226520436
 p    1 1.00
         0.21954348034                   1
 d    1 1.00
                     1                   1

17 0
 s    3 1.00
             13.010701   0.033485484812989
             1.9622572    0.23472187088125
            0.44453796    0.81377028525955
 s    1 1.00
            0.12194962                   1
 p    1 1.00
                   0.8                   1

18 0
 s    3 1.00
             13.010701   0.033485484812989
             1.9622572    0.23472187088125
            0.44453796    0.81377028525955
 s    1 1.00
            0.12194962                   1
 p    1 1.00
                   0.8                   1

19 0
 s    3 1.00
             13.010701   0.033485484812989
             1.9622572    0.23472187088125
            0.44453796    0.81377028525955
 s    1 1.00
            0.12194962                   1
 p    1 1.00
                   0.8                   1

20 0
 s    5 1.00
          1712.8415853  -0.0054477995804909
          257.64812677  -0.040627174632423
          58.458245853   -0.18111962250584
          16.198367905   -0.46843975563173
          5.0052600809   -0.44616846289231
 s    1 1.00
         0.58731856571                   1
 s    1 1.00
         0.18764592253                   1
 p    3 1.00
          13.571470233  -0.058848116969522
          2.9257372874   -0.32024624762471
         0.79927750754   -0.75328226520436
 p    1 1.00
         0.21954348034                   1
 d    1 1.00
                     1                   1

21 0
 s    3 1.00
             13.010701   0.033485484812989
             1.9622572    0.23472187088125
            0.44453796    0.81377028525955
 s    1 1.00
            0.12194962                   1
 p    1 1.00
                   0.8                   1

22 0
 s    3 1.00
             13.010701   0.033485484812989
             1.9622572    0.23472187088125
            0.44453796    0.81377028525955
 s    1 1.00
            0.12194962                   1
 p    1 1.00
                   0.8                   1

23 0
 s    3 1.00
             13.010701   0.033485484812989
             1.9622572    0.23472187088125
            0.44453796    0.81377028525955
 s    1 1.00
            0.12194962                   1
 p    1 1.00
                   0.8                   1

24 0
 s    5 1.00
          1712.8415853  -0.0054477995804909
          257.64812677  -0.040627174632423
          58.458245853   -0.18111962250584
          16.198367905   -0.46843975563173
          5.0052600809   -0.44616846289231
 s    1 1.00
         0.58731856571                   1
 s    1 1.00
         0.18764592253                   1
 p    3 1.00
          13.571470233  -0.058848116969522
          2.9257372874   -0.32024624762471
         0.79927750754   -0.75328226520436
 p    1 1.00
         0.21954348034                   1
 d    1 1.00
                     1                   1

25 0
 s    3 1.00
             13.010701   0.033485484812989
             1.9622572    0.23472187088125
            0.44453796    0.81377028525955
 s    1 1.00
            0.12194962                   1
 p    1 1.00
                   0.8                   1

26 0
 s    3 1.00
             13.010701   0.033485484812989
             1.9622572    0.23472187088125
            0.44453796    0.81377028525955
 s    1 1.00
            0.12194962                   1
 p    1 1.00
                   0.8                   1

27 0
 s    3 1.00
             13.010701   0.033485484812989
             1.9622572    0.23472187088125
            0.44453796    0.81377028525955
 s    1 1.00
            0.12194962                   1
 p    1 1.00
                   0.8                   1

28 0
 s    5 1.00
          1712.8415853  -0.0054477995804909
          257.64812677  -0.040627174632423
          58.458245853   -0.18111962250584
          16.198367905   -0.46843975563173
          5.0052600809   -0.44616846289231
 s    1 1.00
         0.58731856571                   1
 s    1 1.00
         0.18764592253                   1
 p    3 1.00
          13.571470233  -0.058848116969522
          2.9257372874   -0.32024624762471
         0.79927750754   -0.75328226520436
 p    1 1.00
         0.21954348034                   1
 d    1 1.00
                     1                   1

29 0
 s    3 1.00
             13.010701   0.033485484812989
             1.9622572    0.23472187088125
            0.44453796    0.81377028525955
 s    1 1.00
            0.12194962                   1
 p    1 1.00
                   0.8                   1

30 0
 s    3 1.00
             13.010701   0.033485484812989
             1.9622572    0.23472187088125
            0.44453796    0.81377028525955
 s    1 1.00
            0.12194962                   1
 p    1 1.00
                   0.8                   1

31 0
 s    3 1.00
             13.010701   0.033485484812989
             1.9622572    0.23472187088125
            0.44453796    0.81377028525955
 s    1 1.00
            0.12194962                   1
 p    1 1.00
                   0.8                   1

32 0
 s    5 1.00
          1712.8415853  -0.0054477995804909
          257.64812677  -0.040627174632423
          58.458245853   -0.18111962250584
          16.198367905   -0.46843975563173
          5.0052600809   -0.44616846289231
 s    1 1.00
         0.58731856571                   1
 s    1 1.00
         0.18764592253                   1
 p    3 1.00
          13.571470233  -0.058848116969522
          2.9257372874   -0.32024624762471
         0.79927750754   -0.75328226520436
 p    1 1.00
         0.21954348034                   1
 d    1 1.00
                     1                   1

33 0
 s    3 1.00
             13.010701   0.033485484812989
             1.9622572    0.23472187088125
            0.44453796    0.81377028525955
 s    1 1.00
            0.12194962                   1
 p    1 1.00
                   0.8                   1

34 0
 s    3 1.00
             13.010701   0.033485484812989
             1.9622572    0.23472187088125
            0.44453796    0.81377028525955
 s    1 1.00
            0.12194962                   1
 p    1 1.00
                   0.8                   1

35 0
 s    3 1.00
             13.010701   0.033485484812989
             1.9622572    0.23472187088125
            0.44453796    0.81377028525955
 s    1 1.00
            0.12194962                   1
 p    1 1.00
                   0.8                   1

36 0
 s    5 1.00
          1712.8415853  -0.0054477995804909
          257.64812677  -0.040627174632423
          58.458245853   -0.18111962250584
          16.198367905   -0.46843975563173
          5.0052600809   -0.44616846289231
 s    1 1.00
         0.58731856571                   1
 s    1 1.00
         0.18764592253                   1
 p    3 1.00
          13.571470233  -0.058848116969522
          2.9257372874   -0.32024624762471
         0.79927750754   -0.75328226520436
 p    1 1.00
         0.21954348034                   1
 d    1 1.00
                     1                   1

37 0
 s    3 1.00
             13.010701   0.033485484812989
             1.9622572    0.23472187088125
            0.44453796    0.81377028525955
 s    1 1.00
            0.12194962                   1
 p    1 1.00
                   0.8                   1

38 0
 s    3 1.00
             13.010701   0.033485484812989
             1.9622572    0.23472187088125
            0.44453796    0.81377028525955
 s    1 1.00
            0.12194962                   1
 p    1 1.00
                   0.8                   1

39 0
 s    3 1.00
             13.010701   0.033485484812989
             1.9622572    0.23472187088125
            0.44453796    0.81377028525955
 s    1 1.00
            0.12194962                   1
 p    1 1.00
                   0.8                   1

40 0
 s    5 1.00
          1712.8415853  -0.0054477995804909
          257.64812677  -0.040627174632423
          58.458245853   -0.18111962250584
          16.198367905   -0.46843975563173
          5.0052600809   -0.44616846289231
 s    1 1.00
         0.58731856571                   1
 s    1 1.00
         0.18764592253                   1
 p    3 1.00
          13.571470233  -0.058848116969522
          2.9257372874   -0.32024624762471
         0.79927750754   -0.75328226520436
 p    1 1.00
         0.21954348034                   1
 d    1 1.00
                     1                   1

41 0
 s    3 1.00
             13.010701   0.033485484812989
             1.9622572    0.23472187088125
            0.44453796    0.81377028525955
 s    1 1.00
            0.12194962                   1
 p    1 1.00
                   0.8                   1

42 0
 s    3 1.00
             13.010701   0.033485484812989
             1.9622572    0.23472187088125
            0.44453796    0.81377028525955
 s    1 1.00
            0.12194962                   1
 p    1 1.00
                   0.8                   1

43 0
 s    3 1.00
             13.010701   0.033485484812989
             1.9622572    0.23472187088125
            0.44453796    0.81377028525955
 s    1 1.00
            0.12194962                   1
 p    1 1.00
                   0.8                   1

[5d]
[7f]
[9g]

[MO]
 Sym= A
 Ene=               0
 Spin= Alpha
 Occup=    1.00000
   1    1.1117192526577e-05
   2    -1.6380598198281e-05
   3    0.00021518494827668
   4    6.1324595410535e-05
   5    0.00026056007896055
   6    -6.8920701343657e-06
   7    -3.7726243755442e-05
   8    -1.197737412192e-07
   9    3.7002350376068e-05
  10    0.00021985736933114
  11    -1.0320831508939e-05
  12    0.00049449263362416
  13    0.00085513542420702
  14    -0.00050012622777518
  15     0.072487615587405
  16    -0.047320408545013
  17    -0.091176257210792
  18      -0.0817063789242
  19    -0.043833572534198
  20     0.059542178366627
  21    -0.038910444172946
  22    -0.074873476827694
  23    -0.066971356715374
  24    -0.036030491644417
  25    -0.00041464188995515
  26    0.0003274882403109
  27    0.00015413815309712
  28    -0.00018670521799443
  29    8.6350115312351e-05
  30    -0.00038883527718708
  31    0.00022443002119614
  32    -1.1563264858518e-05
  33    2.1267312857217e-05
  34    -0.0002082025401935
  35    -0.00025715934956914
  36    0.00019112682666315
  37    -4.3100809212833e-05
  38    -9.2386519008474e-05
  39    2.9348142332061e-05
  40    0.00015961779167658
  41    0.00040455384147405
  42    -0.0001129542721246
  43    0.00024240658510384
  44    0.0003302419435419
  45    -0.00014426267423467
  46    -0.00050910239316337
  47    0.00031623155240591
  48    0.00053422001894362
  49    0.00048870979434197
  50    0.00025432488552943
  51    -0.00087655898519303
  52    0.0005981453765012
  53    0.0010197831882901
  54    0.00093038832432141
  55    0.00050716521849592
  56    -2.9052215115616e-05
  57    2.1470872133796e-05
  58    1.7186251975674e-05
  59    -9.1502877607886e-06
  60    7.8638068451665e-07
  61    -4.0661945513854e-05
  62    2.7552823676804e-05
  63     0.000279966310102
  64    0.00052333535153919
  65    0.00029919682939539
  66    -7.0053089538789e-06
  67    -0.0004650960066153
  68    0.00026405966643205
  69    -0.00025088662256318
  70    -0.0003787711593935
  71    0.00041416924128758
  72    0.00026539681277116
  73    -0.00017858337570715
  74    -0.00032939890309615
  75    -0.00030699437570871
  76    -0.00016840244178329
  77    -0.033089450632123
  78     -0.24586591622085
  79     -0.14013240455231
  80     -0.13145174647035
  81    -0.050896619363664
  82    -0.046811157102298
  83      0.10123750548104
  84     0.044433826035097
  85      0.03742000911372
  86    0.00020138374041584
  87    -0.00010881138308489
  88    -0.00028771645532491
  89    0.00012704936736209
  90    -0.0001007922406915
  91     -0.03099466568782
  92    0.0089240228010344
  93    0.0083032705462434
  94    0.00011513562650662
  95    -0.0014046490941089
  96    -0.029597031911578
  97     0.010311778989502
  98     0.005655289180823
  99    -0.00038364968192285
 100    0.0063376602279034
 101    -0.039303130455604
 102     0.010314636673535
 103    0.0044164932807157
 104    0.0079424291686645
 105    0.00069800493325921
 106     0.033121034310643
 107      0.24529694804377
 108      0.13976684460367
 109    0.0071135300746734
 110     0.091149749410257
 111     -0.11672734737062
 112    -0.00052034668996947
 113    -0.075205259893521
 114     0.088236360590227
 115    -9.1319892293977e-05
 116    -8.5729908950592e-05
 117    -0.00017974477988092
 118    -0.00021804758406586
 119    -0.00039206128865149
 120      0.04276417006303
 121    -0.0098630163173605
 122    0.0049716816219388
 123    -0.0070351148479348
 124    0.0034882961266724
 125     0.029551887491907
 126    -0.0096492409733712
 127    0.00030209656113217
 128    -0.00064544374282181
 129    0.0082519861706883
 130     0.028523578262125
 131    -0.010555089498683
 132    -0.0048985411876607
 133    -0.0051414126443363
 134    0.0042585933030395
 135     0.032948641454914
 136       0.2447652306806
 137       0.1396021486749
 138    -0.0047256688493574
 139    -0.088729638911513
 140      0.11820090838829
 141    0.0075753639207487
 142     0.067188598092352
 143    -0.094498181113638
 144    0.00020429723778353
 145    -0.00032883130763792
 146    -6.4208783101494e-05
 147    1.2420491452778e-05
 148    -0.00011883738764031
 149     0.030855264222449
 150    -0.0089548214848967
 151    -0.00045552406304169
 152    0.0079027197301185
 153    -0.0027265745023159
 154     0.039088507287529
 155     -0.01025646616716
 156    0.0060198230257902
 157    0.0028112239404251
 158    -0.0062072562934659
 159     0.029481647250572
 160    -0.010425861719044
 161    -0.0040131215253419
 162    0.0020522468618344
 163    -0.0071601151824791
 164    -0.033187159250057
 165     -0.24616085624643
 166     -0.14040612663759
 167      0.13284926950406
 168     0.051182789883732
 169     0.043044018771151
 170     -0.10634744659074
 171    -0.034532199913006
 172    -0.032455214438054
 173    0.0003134228486891
 174    -7.0377527067235e-05
 175    -0.00011742599705868
 176    -0.00020758490286444
 177    0.00021569787637897
 178    -0.029328510110719
 179     0.010651906200895
 180    -0.0061315475744841
 181    -0.0054216967934191
 182    0.0018572284227802
 183    -0.029977733904715
 184    0.0093271870527433
 185    -0.0043087203703779
 186    -0.0041091162274301
 187    -0.0058583153804183
 188    -0.041533744596751
 189    0.0099340222040701
 190    -0.0081767406866537
 191    0.0034506800354126
 192    -0.0026519370008925
 193    0.0001531189312063
 194    0.0011715110715754
 195    0.00074573854099438
 196    -0.0021420543829967
 197    -0.0037673421631892
 198    0.0018996506361303
 199    -0.00036153995744486
 200    0.00056833055758219
 201    0.00019114274178523
 202    0.0004324386088696
 203    -0.00033328822988153
 204    -0.00045428971665881
 205    -0.00027072422082097
 206    -0.0002232635880722
 207    0.0054587632555527
 208    0.0020212419577338
 209    -0.00054855401810595
 210    0.00053398193309457
 211    0.00030412288186163
 212    -0.0044322929673791
 213    -0.001858689267434
 214    0.00044160575884236
 215    -0.00055327187989417
 216    -0.00011349952939194
 217    -0.00056272479246582
 218    -0.00031777034815305
 219    -0.00027988027014647
 220    -0.00035615135780003
 221    0.00012951009880353
 222    -0.00088080948258045
 223    -0.00012467582712194
 224    -0.00095050839572479
 225    0.00051162165006968
 226    -0.0033223159796325
 227    -0.0019737450669113
 228    -0.0015941346900318
 229    0.0021191297923142
 230    0.0021111242516694
 231    1.2046939517821e-05
 232    -0.00014330601675099
 233    4.3006103346811e-05
 234    0.0001820466659562
 235    -7.2418798137296e-05
 236    -0.0026120163761975
 237    -0.0015075244839285
 238    -0.00015992110549969
 239    -0.00025484153695393
 240    0.00010429332555593
 241    -0.00043679699467892
 242    0.00045166391036861
 243    0.00011287656304082
 244    8.1828874665035e-05
 245    5.1985154018412e-06
 246    0.0014698771291418
 247    8.9050936651821e-05
 248    9.1525645701075e-05
 249    7.7591663191228e-05
 250    3.5070899168358e-05
 251    0.00071505126338229
 252    -0.0002796549569021
 253    0.00011286791901078
 254    -0.0018183645950378
 255    0.0030971881073039
 256    0.00012830719316561
 257    0.00097006620475981
 258    -0.0020447671471972
 259    -0.0016385431947121
 260    -0.00015373262308642
 261    2.0349131937114e-05
 262    -0.00011032087269502
 263    2.7210746705272e-05
 264    -9.4554689493488e-05
 265    -0.00079450427237043
 266    -0.00013616808823014
 267    1.5181001244959e-05
 268    -0.00012803616170871
 269    5.0918455764521e-05
 270    0.0025017066490596
 271    0.0020726575056531
 272    -0.00018562143377697
 273    9.647686464766e-05
 274    -0.00022750328244916
 275    6.878880779657e-07
 276    -7.3226765661247e-06
 277    4.1196777104843e-05
 278    -4.1011985777384e-05
 279    0.00014926532502081
 280    -0.00076244630626148
 281    0.00015088032259909
 282    -0.00016028036172234
 283    0.0026784198360955
 284    -0.0019265223881505
 285    -0.00048671364552141
 286    -0.0010688292413484
 287    0.0018133777361375
 288    0.0016618975739887
 289    0.00013408304266086
 290    -1.2011223259456e-05
 291    0.00011481558763992
 292    -4.4148177683884e-05
 293    9.0204431998055e-05
 294    0.00062310890742601
 295    4.2074487686168e-05
 296    -0.00012571400060509
 297    1.7746863644196e-05
 298    3.0902924208109e-05
 299    8.5171699214465e-05
 300    3.5666822872859e-05
 301    -0.0001106302323345
 302    -4.09263542585e-05
 303    -0.00011309561426525
 304    -0.0023494570891322
 305    -0.0020671530929265
 306    0.00021023559990574
 307    -8.0046646134308e-05
 308    0.00019959243249491
 309    0.00088573379134109
 310    3.850359175077e-05
 311    0.0015974477059315
 312    -0.0019157329662796
 313    0.0015039590120086
 314    0.0026033748653038
 315    0.0012334755371699
 316    -0.0025531422535047
 317    -0.0018726614990643
 318    7.908299972233e-05
 319    -1.7429506388483e-05
 320    -1.4844308723699e-05
 321    0.00020708566508338
 322    6.7413924972877e-05
 323    -0.0014715622200519
 324    -2.1016552497827e-05
 325    3.5852510219001e-05
 326    5.8746045701551e-05
 327    -9.8097375932104e-05
 328    0.00069946398787511
 329    -0.00059130119593381
 330    4.8317057488869e-05
 331    5.4377275287949e-05
 332    -9.4501061053657e-05
 333    0.0021749939986934
 334    0.00088720447618907
 335    -0.00020315390612034
 336    -0.00012091017921788
 337    5.6537747961449e-05
 338    -2.1378900274977e-05
 339    -0.0001237384126398