[Molden Format]
made by pyscf v[2.1.1]
[Atoms] (AU)
Cr   1   24     1.56143912275337    -2.46507591990239    -1.82404491365355
Cr   2   24    -1.56139565905251     2.46513072196000     1.82399011159594
O   3   8     0.00002078698737     0.00002834589187    -0.00002645616574
N   4   7     5.12832174930954    -1.10581670549011    -0.60767356069801
H   5   1     6.65216855026694    -1.66292686427314    -1.66487895135981
H   6   1     5.63710405218294    -1.59213394419468     1.18765885421890
H   7   1     5.20084187906585     0.81566059741989    -0.65509245834172
N   8   7     1.71230729763415    -0.02251608677419    -4.99594076510539
H   9   1     0.29795878723855     1.27247165241550    -4.90823668593820
H   10   1     1.50271021425414    -0.85583806455427    -6.73026148236459
H   11   1     3.34039895052705     0.99863710888315    -5.18656310846864
N   12   7     1.41057094787259    -4.90763575303059     1.34785282752440
H   13   1     1.64193389675534    -6.79355407945465     0.97314659318890
H   14   1    -0.29048681014202    -4.81040367474334     2.24006056107205
H   15   1     2.72468082571676    -4.56691435331926     2.71738081369757
N   16   7    -2.00544350380280    -3.82433513431467    -3.04041437688297
H   17   1    -2.87205678671934    -5.05516478184926    -1.83221042023780
H   18   1    -2.03637832046193    -4.76397121413665    -4.73247136936628
H   19   1    -3.24475802163669    -2.37551046050250    -3.28123540501917
N   20   7     3.37923471211299    -5.33493873459111    -3.94755661599306
H   21   1     4.17102617885350    -4.76109883042731    -5.61685374703210
H   22   1     2.26176595533881    -6.82326057413281    -4.47610923358166
H   23   1     4.85383336053810    -6.19899521806112    -3.03922195969837
N   24   7    -5.12827828560868     1.10587339727385     0.60762064836653
H   25   1    -5.15408816501799    -0.81544705836782     0.54662784797006
H   26   1    -5.69743166898356     1.68113626520945    -1.14337690194197
H   27   1    -6.63528195761783     1.56841410187914     1.73267665553083
N   28   7    -1.71226383393328     0.02257088883181     4.99588785277390
H   29   1    -1.62991523860311     0.86667375415253     6.73575491620870
H   30   1    -0.22416876152653    -1.19157625647512     4.98456461383551
H   31   1    -3.28782110056328    -1.08746368536834     5.11339858210385
N   32   7     2.00548696750367     3.82438993637228     3.04035957482536
H   33   1     2.05186651577887     4.68410571893416     4.77402266739321
H   34   1     2.83712330958063     5.12208376337235     1.87805706574587
H   35   1     3.26582090902109     2.38241174030942     3.19051154350492
N   36   7    -1.41052748417173     4.90769055508820    -1.34790762958202
H   37   1    -1.75003190025884     6.78104976168840    -0.99229329828299
H   38   1    -2.65834387984003     4.49309409198925    -2.75785496783350
H   39   1     0.32278033988471     4.89894112313146    -2.18344058692784
N   40   7    -3.37919124841212     5.33499353664873     3.94750181393545
H   41   1    -2.26357064378777     6.83195331430581     4.45515784003860
H   42   1    -4.15358022727151     4.76963661305810     5.62761006813313
H   43   1    -4.86681766873998     6.18449345978121     3.04686590187224
[GTO]
1 0
 s    6 1.00
          51528.086349  0.0017695545768669
          7737.2103487   0.013556436258096
           1760.374847   0.067162645785071
          496.87706544    0.23295905918518
          161.46520598    0.47040576982722
          55.466352268    0.35733072606876
 s    3 1.00
          107.54732999   -0.10605255446629
          12.408671897    0.62543981484169
          5.0423628826    0.44878820793655
 s    3 1.00
          8.5461640165   -0.21819012081133
          1.3900441221    0.70422525667731
         0.56066602876    0.42488555412558
 s    1 1.00
        0.071483705972                   1
 s    1 1.00
        0.028250687604                   1
 p    5 1.00
          640.48536096  0.0093555063746755
          150.69711194   0.068993338492216
          47.503755296     0.2634118959318
          16.934120165    0.51034501651775
           6.240968059    0.33195512953954
 p    3 1.00
          3.0885463206    0.32917682676976
          1.1791047769    0.55491385190365
         0.43369774432    0.23818412855984
 p    1 1.00
              0.120675                   1
 d    4 1.00
          27.559479426   0.036950140313562
          7.4687020327    0.18821519783039
          2.4345903574    0.44641244239929
         0.78244754808     0.5681617303244
 d    1 1.00
         0.21995774311                   1
 f    1 1.00
                 1.147                   1

2 0
 s    6 1.00
          51528.086349  0.0017695545768669
          7737.2103487   0.013556436258096
           1760.374847   0.067162645785071
          496.87706544    0.23295905918518
          161.46520598    0.47040576982722
          55.466352268    0.35733072606876
 s    3 1.00
          107.54732999   -0.10605255446629
          12.408671897    0.62543981484169
          5.0423628826    0.44878820793655
 s    3 1.00
          8.5461640165   -0.21819012081133
          1.3900441221    0.70422525667731
         0.56066602876    0.42488555412558
 s    1 1.00
        0.071483705972                   1
 s    1 1.00
        0.028250687604                   1
 p    5 1.00
          640.48536096  0.0093555063746755
          150.69711194   0.068993338492216
          47.503755296     0.2634118959318
          16.934120165    0.51034501651775
           6.240968059    0.33195512953954
 p    3 1.00
          3.0885463206    0.32917682676976
          1.1791047769    0.55491385190365
         0.43369774432    0.23818412855984
 p    1 1.00
              0.120675                   1
 d    4 1.00
          27.559479426   0.036950140313562
          7.4687020327    0.18821519783039
          2.4345903574    0.44641244239929
         0.78244754808     0.5681617303244
 d    1 1.00
         0.21995774311                   1
 f    1 1.00
                 1.147                   1

3 0
 s    5 1.00
          2266.1767785  -0.0053893503921743
          340.87010191   -0.04023472138896
          77.363135167   -0.18008184205526
           21.47964494   -0.46828857657651
          6.6589433124   -0.44692617160187
 s    1 1.00
         0.80975975668                   1
 s    1 1.00
         0.25530772234                   1
 p    3 1.00
          17.721504317   0.062630248763161
           3.863550544    0.33331138482352
          1.0480920883    0.74148638308122
 p    1 1.00
         0.27641544411                   1
 d    1 1.00
                   1.2                   1

4 0
 s    5 1.00
          1712.8415853  -0.0054477995804909
          257.64812677  -0.040627174632423
          58.458245853   -0.18111962250584
          16.198367905   -0.46843975563173
          5.0052600809   -0.44616846289231
 s    1 1.00
         0.58731856571                   1
 s    1 1.00
         0.18764592253                   1
 p    3 1.00
          13.571470233  -0.058848116969522
          2.9257372874   -0.32024624762471
         0.79927750754   -0.75328226520436
 p    1 1.00
         0.21954348034                   1
 d    1 1.00
                     1                   1

5 0
 s    3 1.00
             13.010701   0.033485484812989
             1.9622572    0.23472187088125
            0.44453796    0.81377028525955
 s    1 1.00
            0.12194962                   1
 p    1 1.00
                   0.8                   1

6 0
 s    3 1.00
             13.010701   0.033485484812989
             1.9622572    0.23472187088125
            0.44453796    0.81377028525955
 s    1 1.00
            0.12194962                   1
 p    1 1.00
                   0.8                   1

7 0
 s    3 1.00
             13.010701   0.033485484812989
             1.9622572    0.23472187088125
            0.44453796    0.81377028525955
 s    1 1.00
            0.12194962                   1
 p    1 1.00
                   0.8                   1

8 0
 s    5 1.00
          1712.8415853  -0.0054477995804909
          257.64812677  -0.040627174632423
          58.458245853   -0.18111962250584
          16.198367905   -0.46843975563173
          5.0052600809   -0.44616846289231
 s    1 1.00
         0.58731856571                   1
 s    1 1.00
         0.18764592253                   1
 p    3 1.00
          13.571470233  -0.058848116969522
          2.9257372874   -0.32024624762471
         0.79927750754   -0.75328226520436
 p    1 1.00
         0.21954348034                   1
 d    1 1.00
                     1                   1

9 0
 s    3 1.00
             13.010701   0.033485484812989
             1.9622572    0.23472187088125
            0.44453796    0.81377028525955
 s    1 1.00
            0.12194962                   1
 p    1 1.00
                   0.8                   1

10 0
 s    3 1.00
             13.010701   0.033485484812989
             1.9622572    0.23472187088125
            0.44453796    0.81377028525955
 s    1 1.00
            0.12194962                   1
 p    1 1.00
                   0.8                   1

11 0
 s    3 1.00
             13.010701   0.033485484812989
             1.9622572    0.23472187088125
            0.44453796    0.81377028525955
 s    1 1.00
            0.12194962                   1
 p    1 1.00
                   0.8                   1

12 0
 s    5 1.00
          1712.8415853  -0.0054477995804909
          257.64812677  -0.040627174632423
          58.458245853   -0.18111962250584
          16.198367905   -0.46843975563173
          5.0052600809   -0.44616846289231
 s    1 1.00
         0.58731856571                   1
 s    1 1.00
         0.18764592253                   1
 p    3 1.00
          13.571470233  -0.058848116969522
          2.9257372874   -0.32024624762471
         0.79927750754   -0.75328226520436
 p    1 1.00
         0.21954348034                   1
 d    1 1.00
                     1                   1

13 0
 s    3 1.00
             13.010701   0.033485484812989
             1.9622572    0.23472187088125
            0.44453796    0.81377028525955
 s    1 1.00
            0.12194962                   1
 p    1 1.00
                   0.8                   1

14 0
 s    3 1.00
             13.010701   0.033485484812989
             1.9622572    0.23472187088125
            0.44453796    0.81377028525955
 s    1 1.00
            0.12194962                   1
 p    1 1.00
                   0.8                   1

15 0
 s    3 1.00
             13.010701   0.033485484812989
             1.9622572    0.23472187088125
            0.44453796    0.81377028525955
 s    1 1.00
            0.12194962                   1
 p    1 1.00
                   0.8                   1

16 0
 s    5 1.00
          1712.8415853  -0.0054477995804909
          257.64812677  -0.040627174632423
          58.458245853   -0.18111962250584
          16.198367905   -0.46843975563173
          5.0052600809   -0.44616846289231
 s    1 1.00
         0.58731856571                   1
 s    1 1.00
         0.18764592253                   1
 p    3 1.00
          13.571470233  -0.058848116969522
          2.9257372874   -0.32024624762471
         0.79927750754   -0.75328226520436
 p    1 1.00
         0.21954348034                   1
 d    1 1.00
                     1                   1

17 0
 s    3 1.00
             13.010701   0.033485484812989
             1.9622572    0.23472187088125
            0.44453796    0.81377028525955
 s    1 1.00
            0.12194962                   1
 p    1 1.00
                   0.8                   1

18 0
 s    3 1.00
             13.010701   0.033485484812989
             1.9622572    0.23472187088125
            0.44453796    0.81377028525955
 s    1 1.00
            0.12194962                   1
 p    1 1.00
                   0.8                   1

19 0
 s    3 1.00
             13.010701   0.033485484812989
             1.9622572    0.23472187088125
            0.44453796    0.81377028525955
 s    1 1.00
            0.12194962                   1
 p    1 1.00
                   0.8                   1

20 0
 s    5 1.00
          1712.8415853  -0.0054477995804909
          257.64812677  -0.040627174632423
          58.458245853   -0.18111962250584
          16.198367905   -0.46843975563173
          5.0052600809   -0.44616846289231
 s    1 1.00
         0.58731856571                   1
 s    1 1.00
         0.18764592253                   1
 p    3 1.00
          13.571470233  -0.058848116969522
          2.9257372874   -0.32024624762471
         0.79927750754   -0.75328226520436
 p    1 1.00
         0.21954348034                   1
 d    1 1.00
                     1                   1

21 0
 s    3 1.00
             13.010701   0.033485484812989
             1.9622572    0.23472187088125
            0.44453796    0.81377028525955
 s    1 1.00
            0.12194962                   1
 p    1 1.00
                   0.8                   1

22 0
 s    3 1.00
             13.010701   0.033485484812989
             1.9622572    0.23472187088125
            0.44453796    0.81377028525955
 s    1 1.00
            0.12194962                   1
 p    1 1.00
                   0.8                   1

23 0
 s    3 1.00
             13.010701   0.033485484812989
             1.9622572    0.23472187088125
            0.44453796    0.81377028525955
 s    1 1.00
            0.12194962                   1
 p    1 1.00
                   0.8                   1

24 0
 s    5 1.00
          1712.8415853  -0.0054477995804909
          257.64812677  -0.040627174632423
          58.458245853   -0.18111962250584
          16.198367905   -0.46843975563173
          5.0052600809   -0.44616846289231
 s    1 1.00
         0.58731856571                   1
 s    1 1.00
         0.18764592253                   1
 p    3 1.00
          13.571470233  -0.058848116969522
          2.9257372874   -0.32024624762471
         0.79927750754   -0.75328226520436
 p    1 1.00
         0.21954348034                   1
 d    1 1.00
                     1                   1

25 0
 s    3 1.00
             13.010701   0.033485484812989
             1.9622572    0.23472187088125
            0.44453796    0.81377028525955
 s    1 1.00
            0.12194962                   1
 p    1 1.00
                   0.8                   1

26 0
 s    3 1.00
             13.010701   0.033485484812989
             1.9622572    0.23472187088125
            0.44453796    0.81377028525955
 s    1 1.00
            0.12194962                   1
 p    1 1.00
                   0.8                   1

27 0
 s    3 1.00
             13.010701   0.033485484812989
             1.9622572    0.23472187088125
            0.44453796    0.81377028525955
 s    1 1.00
            0.12194962                   1
 p    1 1.00
                   0.8                   1

28 0
 s    5 1.00
          1712.8415853  -0.0054477995804909
          257.64812677  -0.040627174632423
          58.458245853   -0.18111962250584
          16.198367905   -0.46843975563173
          5.0052600809   -0.44616846289231
 s    1 1.00
         0.58731856571                   1
 s    1 1.00
         0.18764592253                   1
 p    3 1.00
          13.571470233  -0.058848116969522
          2.9257372874   -0.32024624762471
         0.79927750754   -0.75328226520436
 p    1 1.00
         0.21954348034                   1
 d    1 1.00
                     1                   1

29 0
 s    3 1.00
             13.010701   0.033485484812989
             1.9622572    0.23472187088125
            0.44453796    0.81377028525955
 s    1 1.00
            0.12194962                   1
 p    1 1.00
                   0.8                   1

30 0
 s    3 1.00
             13.010701   0.033485484812989
             1.9622572    0.23472187088125
            0.44453796    0.81377028525955
 s    1 1.00
            0.12194962                   1
 p    1 1.00
                   0.8                   1

31 0
 s    3 1.00
             13.010701   0.033485484812989
             1.9622572    0.23472187088125
            0.44453796    0.81377028525955
 s    1 1.00
            0.12194962                   1
 p    1 1.00
                   0.8                   1

32 0
 s    5 1.00
          1712.8415853  -0.0054477995804909
          257.64812677  -0.040627174632423
          58.458245853   -0.18111962250584
          16.198367905   -0.46843975563173
          5.0052600809   -0.44616846289231
 s    1 1.00
         0.58731856571                   1
 s    1 1.00
         0.18764592253                   1
 p    3 1.00
          13.571470233  -0.058848116969522
          2.9257372874   -0.32024624762471
         0.79927750754   -0.75328226520436
 p    1 1.00
         0.21954348034                   1
 d    1 1.00
                     1                   1

33 0
 s    3 1.00
             13.010701   0.033485484812989
             1.9622572    0.23472187088125
            0.44453796    0.81377028525955
 s    1 1.00
            0.12194962                   1
 p    1 1.00
                   0.8                   1

34 0
 s    3 1.00
             13.010701   0.033485484812989
             1.9622572    0.23472187088125
            0.44453796    0.81377028525955
 s    1 1.00
            0.12194962                   1
 p    1 1.00
                   0.8                   1

35 0
 s    3 1.00
             13.010701   0.033485484812989
             1.9622572    0.23472187088125
            0.44453796    0.81377028525955
 s    1 1.00
            0.12194962                   1
 p    1 1.00
                   0.8                   1

36 0
 s    5 1.00
          1712.8415853  -0.0054477995804909
          257.64812677  -0.040627174632423
          58.458245853   -0.18111962250584
          16.198367905   -0.46843975563173
          5.0052600809   -0.44616846289231
 s    1 1.00
         0.58731856571                   1
 s    1 1.00
         0.18764592253                   1
 p    3 1.00
          13.571470233  -0.058848116969522
          2.9257372874   -0.32024624762471
         0.79927750754   -0.75328226520436
 p    1 1.00
         0.21954348034                   1
 d    1 1.00
                     1                   1

37 0
 s    3 1.00
             13.010701   0.033485484812989
             1.9622572    0.23472187088125
            0.44453796    0.81377028525955
 s    1 1.00
            0.12194962                   1
 p    1 1.00
                   0.8                   1

38 0
 s    3 1.00
             13.010701   0.033485484812989
             1.9622572    0.23472187088125
            0.44453796    0.81377028525955
 s    1 1.00
            0.12194962                   1
 p    1 1.00
                   0.8                   1

39 0
 s    3 1.00
             13.010701   0.033485484812989
             1.9622572    0.23472187088125
            0.44453796    0.81377028525955
 s    1 1.00
            0.12194962                   1
 p    1 1.00
                   0.8                   1

40 0
 s    5 1.00
          1712.8415853  -0.0054477995804909
          257.64812677  -0.040627174632423
          58.458245853   -0.18111962250584
          16.198367905   -0.46843975563173
          5.0052600809   -0.44616846289231
 s    1 1.00
         0.58731856571                   1
 s    1 1.00
         0.18764592253                   1
 p    3 1.00
          13.571470233  -0.058848116969522
          2.9257372874   -0.32024624762471
         0.79927750754   -0.75328226520436
 p    1 1.00
         0.21954348034                   1
 d    1 1.00
                     1                   1

41 0
 s    3 1.00
             13.010701   0.033485484812989
             1.9622572    0.23472187088125
            0.44453796    0.81377028525955
 s    1 1.00
            0.12194962                   1
 p    1 1.00
                   0.8                   1

42 0
 s    3 1.00
             13.010701   0.033485484812989
             1.9622572    0.23472187088125
            0.44453796    0.81377028525955
 s    1 1.00
            0.12194962                   1
 p    1 1.00
                   0.8                   1

43 0
 s    3 1.00
             13.010701   0.033485484812989
             1.9622572    0.23472187088125
            0.44453796    0.81377028525955
 s    1 1.00
            0.12194962                   1
 p    1 1.00
                   0.8                   1

[5d]
[7f]
[9g]

[MO]
 Sym= A
 Ene=               0
 Spin= Alpha
 Occup=    1.00000
   1    8.9102828908001e-06
   2    -1.1418360000682e-05
   3    0.0001728052505123
   4    4.3164390704449e-05
   5    0.00026594802879338
   6    -2.5212742124175e-05
   7    -0.0001049045805215
   8    0.00010138836676606
   9    0.00012634409005802
  10    0.00049541736876716
  11    -0.00046061087278418
  12    0.00053422063318654
  13    0.0010013112954477
  14    -0.0006899079354111
  15     0.072480646260237
  16    -0.047288131740143
  17    -0.091209684050277
  18     -0.08170921565975
  19    -0.043804004629479
  20     0.059547635557439
  21     -0.03890623695349
  22    -0.074877764042958
  23    -0.066966502432608
  24    -0.036020185786774
  25    -0.00041557173070048
  26    0.00033126219790708
  27    0.00015728427544181
  28    -0.0001818876330067
  29    8.9404591254822e-05
  30    -0.00038779106274968
  31    0.00022055885610069
  32    -6.6756870510669e-06
  33    1.280720065391e-05
  34    -0.00011444197609181
  35    -0.0002489714171606
  36    0.00018906661488195
  37    -6.1724742378372e-05
  38    -0.00015920286054298
  39    0.00013136860720661
  40    0.00025014653494056
  41    0.00067861862973723
  42    -0.00056512643240365
  43    0.00027001807977657
  44    0.00049422544236547
  45    -0.00031905498376521
  46    -0.00049119991104959
  47    0.00025460991780983
  48    0.00059362206754958
  49    0.00048958169432248
  50    0.00019973032259689
  51    -0.00088675058903296
  52    0.00056666712799397
  53    0.0010628775503767
  54    0.00091547924318715
  55    0.00046158824245512
  56    -3.132040807421e-05
  57    2.4896087771011e-05
  58    2.0884953478137e-05
  59    -5.3217245731568e-06
  60    1.7105753229908e-06
  61    -3.8107156766036e-05
  62    2.3898094363852e-05
  63    0.00036019136029575
  64    0.00051339521918129
  65    0.00027948749116381
  66    3.9441448233546e-05
  67    -6.2759111866578e-06
  68    -3.4168884678836e-05
  69    -0.0001996272208628
  70    -2.2510540720793e-05
  71    0.00015623139781552
  72    0.00026542141998441
  73    -0.00017817369268138
  74    -0.00032962508863394
  75    -0.00030706557454987
  76    -0.00016793666575259
  77    -0.033075494399102
  78     -0.24581454958291
  79     -0.14012560183209
  80     -0.13146279532725
  81    -0.050911961358726
  82     -0.04670080649532
  83      0.10123577094032
  84     0.044425281788003
  85     0.037377637723195
  86    0.0002007392484985
  87    -0.00010927993812871
  88    -0.00028633285904685
  89    0.00012838293168318
  90    -0.000102555986034
  91    -0.030923708933972
  92    0.0089376622844711
  93    0.0082945696469045
  94    0.00011914267759463
  95    -0.0014040286524856
  96    -0.029662304410237
  97     0.010291227142769
  98    0.0056608098342789
  99    -0.00038476165823348
 100    0.0063431856426608
 101    -0.039271799512945
 102     0.010335026866806
 103    0.0044145143560253
 104    0.0079368934427453
 105    0.00069302715526361
 106     0.033284928622454
 107      0.24577856407721
 108      0.14008245523529
 109    0.0069763593711725
 110     0.091620885660677
 111     -0.11682253769729
 112    -0.00044979991398723
 113    -0.075527274708888
 114     0.088383995779236
 115    -7.7535700683603e-05
 116    -8.5775283836499e-05
 117    -0.0001758733687826
 118    -0.00021906227427064
 119    -0.00038358445222102
 120     0.042589620781804
 121    -0.0099385493689983
 122    0.0049618832926537
 123    -0.007037775134351
 124    0.0034924956855793
 125     0.029814936568387
 126    -0.0096117413905634
 127     0.000312123763838
 128    -0.00064482557314559
 129    0.0082865540829399
 130     0.028573461466976
 131    -0.010576525582859
 132    -0.0049019637840324
 133    -0.0051609370039563
 134    0.0042591353026068
 135     0.032786445527717
 136      0.24428636337239
 137      0.13929234523622
 138    -0.0045666303909195
 139    -0.088762110059947
 140      0.11770997234815
 141    0.0074821524016148
 142     0.067123368898684
 143    -0.094146592135794
 144    0.00020994563282027
 145    -0.00033292112434252
 146    -6.2887118001914e-05
 147    2.9039117700174e-05
 148    -0.00011540721548753
 149     0.030553615567508
 150    -0.0090051861429285
 151    -0.00045630165111083
 152    0.0078644462562632
 153    -0.0027196837939036
 154     0.039230157538761
 155    -0.010193219361983
 156    0.0060277422782015
 157    0.0028124711081555
 158    -0.0061970399451541
 159     0.029518215409577
 160    -0.010383619013397
 161    -0.0040203205601676
 162    0.0020563606190788
 163    -0.007146606099339
 164    -0.033195139629482
 165     -0.24617609865794
 166     -0.14043380545275
 167      0.13287713161575
 168     0.051128880820795
 169     0.043132389254191
 170     -0.10636739014298
 171     -0.03452083065865
 172    -0.032489030213518
 173    0.0003121025550796
 174    -7.1247730757161e-05
 175    -0.00011680354757283
 176    -0.00020771497012145
 177    0.00021488488499242
 178    -0.029394251162929
 179     0.010637914882869
 180    -0.0061388740969889
 181    -0.0054267789735939
 182    0.0018598341220396
 183    -0.029945870070775
 184    0.0093324336394529
 185    -0.0043083855268804
 186    -0.0041030972479642
 187    -0.0058572376683783
 188     -0.04148220657151
 189     0.009958923855252
 190    -0.0081712580344202
 191    0.0034476952403752
 192    -0.0026545077406211
 193    0.00016131308151354
 194    0.0012132259867345
 195    0.0007807534367788
 196    -0.0021988994870543
 197    -0.0041956554508497
 198    0.0023868332266653
 199    -0.00033823967736208
 200    0.00080780720128112
 201    -5.9851362754305e-05
 202    0.00044898451805277
 203    -0.00035326721319348
 204    -0.00045936427611186
 205    -0.00027057543167007
 206    -0.00021771505139047
 207    0.0059406522935276
 208    0.0021162395139924
 209    -0.00057483476104436
 210    0.00053337605304607
 211    0.00034393744738341
 212    -0.0046041512042314
 213    -0.0018954892593676
 214    0.00043158908842936
 215    -0.00055685868092829
 216    -0.00013753713401622
 217    -0.0008559503560379
 218    -0.00037932860485395
 219    -0.00024728943966009
 220    -0.00036021871325578
 221    0.00012852996520362
 222    -0.00089825242519324
 223    -0.00023454221657847
 224    -0.00098790259293622
 225    0.00053423489426118
 226    -0.0033228613850116
 227    -0.0018496319010449
 228    -0.0016198217572084
 229    0.0020971140506152
 230    0.0020567539858054
 231    1.2429966837866e-05
 232    -0.00014242341491425
 233    4.2086753922303e-05
 234    0.0001798020848546
 235    -7.057177699003e-05
 236    -0.0026448516331802
 237    -0.0015247972270625
 238    -0.00016312939950306
 239    -0.00026149774235596
 240    9.820912612275e-05
 241    -0.0003796623811972
 242    0.00047395845704235
 243    0.0001167635038057
 244    8.0037035215284e-05
 245    9.0073964888223e-06
 246    0.0013873669246572
 247    7.6311153947073e-05
 248    8.0627887666702e-05
 249    8.1460579281676e-05
 250    3.672618521649e-05
 251    0.00054803508219053
 252    -0.0008214877476141
 253    -0.00023537702644969
 254    -0.0019590195742962
 255    0.0035983818128512
 256    2.0882452172457e-06
 257    0.0010430265736115
 258    -0.0023912619589395
 259    -0.0014679541674582
 260    -0.00016877566282902
 261    2.1563446532872e-05
 262    -0.00011491273531313
 263    2.9176766256714e-05
 264    -0.00010240302657984
 265    -0.0010766684953653
 266    -0.00017605582206327
 267    2.2709426261154e-05
 268    -0.00012690152600703
 269    8.9070088649344e-05
 270    0.0026655873858582
 271    0.0021498130503508
 272    -0.00019441495915662
 273    9.0634475030356e-05
 274    -0.00022331948863266
 275    -3.8839771381946e-05
 276    1.9315152136892e-05
 277    3.8972091587575e-05
 278    -6.1376677348085e-05
 279    0.0001508126649817
 280    -0.00075769444360532
 281    0.00010838677547026
 282    -0.00016382299380471
 283    0.0026708790197694
 284    -0.001993516770322
 285    -0.00040955381802109
 286    -0.0010606073107364
 287    0.0018322471650461
 288    0.0016341911627904
 289    0.00013501925688252
 290    -1.1187182140333e-05
 291    0.00011418782684727
 292    -4.4086352853167e-05
 293    9.0683373819648e-05
 294    0.00058177193421803
 295    3.7324098866659e-05
 296    -0.00012444697044105
 297    2.498219666748e-05
 298    3.3779374221611e-05
 299    0.00014479458377152
 300    5.1862441407027e-05
 301    -0.00011597946935284
 302    -4.5066890836902e-05
 303    -0.00011060634571263
 304    -0.0024052312238735
 305    -0.0020876335706816
 306    0.00021758025097244
 307    -8.3235111100567e-05
 308    0.00019681363619216
 309    0.0010436083945984
 310    0.00045496748319357
 311    0.0018715390498954
 312    -0.0017566386648705
 313    0.0014425442916338
 314    0.0021451607971842
 315     0.001142711830744
 316    -0.0026000534764388
 317    -0.0015482145017083
 318    7.3309586133613e-05
 319    -1.4698401087073e-05
 320    -1.5954750537078e-05
 321    0.00019081106750976
 322    6.2255378126845e-05
 323    -0.0011692133071414
 324    3.3541774773963e-05
 325    3.7190081981684e-05
 326    2.1757857956413e-05
 327    -9.1374154479055e-05
 328    0.00064020618064922
 329    -0.00063545898360976
 330    3.9054249056484e-05
 331    5.904368015426e-05
 332    -8.4633450463524e-05
 333    0.0020345498580679
 334    0.00082912517868648
 335    -0.00019481974274454
 336    -0.00011750719515718
 337    6.5446756214301e-05
 338    2.8775588033509e-06
 339    5.5043490388295e-05
 340    0.00010238391724822