[Molden Format]
made by pyscf v[2.1.1]
[Atoms] (AU)
Cr   1   24     1.56143912275337    -2.46507591990239    -1.82404491365355
Cr   2   24    -1.56139565905251     2.46513072196000     1.82399011159594
O   3   8     0.00002078698737     0.00002834589187    -0.00002645616574
N   4   7     5.12832174930954    -1.10581670549011    -0.60767356069801
H   5   1     6.65216855026694    -1.66292686427314    -1.66487895135981
H   6   1     5.63710405218294    -1.59213394419468     1.18765885421890
H   7   1     5.20084187906585     0.81566059741989    -0.65509245834172
N   8   7     1.71230729763415    -0.02251608677419    -4.99594076510539
H   9   1     0.29795878723855     1.27247165241550    -4.90823668593820
H   10   1     1.50271021425414    -0.85583806455427    -6.73026148236459
H   11   1     3.34039895052705     0.99863710888315    -5.18656310846864
N   12   7     1.41057094787259    -4.90763575303059     1.34785282752440
H   13   1     1.64193389675534    -6.79355407945465     0.97314659318890
H   14   1    -0.29048681014202    -4.81040367474334     2.24006056107205
H   15   1     2.72468082571676    -4.56691435331926     2.71738081369757
N   16   7    -2.00544350380280    -3.82433513431467    -3.04041437688297
H   17   1    -2.87205678671934    -5.05516478184926    -1.83221042023780
H   18   1    -2.03637832046193    -4.76397121413665    -4.73247136936628
H   19   1    -3.24475802163669    -2.37551046050250    -3.28123540501917
N   20   7     3.37923471211299    -5.33493873459111    -3.94755661599306
H   21   1     4.17102617885350    -4.76109883042731    -5.61685374703210
H   22   1     2.26176595533881    -6.82326057413281    -4.47610923358166
H   23   1     4.85383336053810    -6.19899521806112    -3.03922195969837
N   24   7    -5.12827828560868     1.10587339727385     0.60762064836653
H   25   1    -5.15408816501799    -0.81544705836782     0.54662784797006
H   26   1    -5.69743166898356     1.68113626520945    -1.14337690194197
H   27   1    -6.63528195761783     1.56841410187914     1.73267665553083
N   28   7    -1.71226383393328     0.02257088883181     4.99588785277390
H   29   1    -1.62991523860311     0.86667375415253     6.73575491620870
H   30   1    -0.22416876152653    -1.19157625647512     4.98456461383551
H   31   1    -3.28782110056328    -1.08746368536834     5.11339858210385
N   32   7     2.00548696750367     3.82438993637228     3.04035957482536
H   33   1     2.05186651577887     4.68410571893416     4.77402266739321
H   34   1     2.83712330958063     5.12208376337235     1.87805706574587
H   35   1     3.26582090902109     2.38241174030942     3.19051154350492
N   36   7    -1.41052748417173     4.90769055508820    -1.34790762958202
H   37   1    -1.75003190025884     6.78104976168840    -0.99229329828299
H   38   1    -2.65834387984003     4.49309409198925    -2.75785496783350
H   39   1     0.32278033988471     4.89894112313146    -2.18344058692784
N   40   7    -3.37919124841212     5.33499353664873     3.94750181393545
H   41   1    -2.26357064378777     6.83195331430581     4.45515784003860
H   42   1    -4.15358022727151     4.76963661305810     5.62761006813313
H   43   1    -4.86681766873998     6.18449345978121     3.04686590187224
[GTO]
1 0
 s    6 1.00
          51528.086349  0.0017695545768669
          7737.2103487   0.013556436258096
           1760.374847   0.067162645785071
          496.87706544    0.23295905918518
          161.46520598    0.47040576982722
          55.466352268    0.35733072606876
 s    3 1.00
          107.54732999   -0.10605255446629
          12.408671897    0.62543981484169
          5.0423628826    0.44878820793655
 s    3 1.00
          8.5461640165   -0.21819012081133
          1.3900441221    0.70422525667731
         0.56066602876    0.42488555412558
 s    1 1.00
        0.071483705972                   1
 s    1 1.00
        0.028250687604                   1
 p    5 1.00
          640.48536096  0.0093555063746755
          150.69711194   0.068993338492216
          47.503755296     0.2634118959318
          16.934120165    0.51034501651775
           6.240968059    0.33195512953954
 p    3 1.00
          3.0885463206    0.32917682676976
          1.1791047769    0.55491385190365
         0.43369774432    0.23818412855984
 p    1 1.00
              0.120675                   1
 d    4 1.00
          27.559479426   0.036950140313562
          7.4687020327    0.18821519783039
          2.4345903574    0.44641244239929
         0.78244754808     0.5681617303244
 d    1 1.00
         0.21995774311                   1
 f    1 1.00
                 1.147                   1

2 0
 s    6 1.00
          51528.086349  0.0017695545768669
          7737.2103487   0.013556436258096
           1760.374847   0.067162645785071
          496.87706544    0.23295905918518
          161.46520598    0.47040576982722
          55.466352268    0.35733072606876
 s    3 1.00
          107.54732999   -0.10605255446629
          12.408671897    0.62543981484169
          5.0423628826    0.44878820793655
 s    3 1.00
          8.5461640165   -0.21819012081133
          1.3900441221    0.70422525667731
         0.56066602876    0.42488555412558
 s    1 1.00
        0.071483705972                   1
 s    1 1.00
        0.028250687604                   1
 p    5 1.00
          640.48536096  0.0093555063746755
          150.69711194   0.068993338492216
          47.503755296     0.2634118959318
          16.934120165    0.51034501651775
           6.240968059    0.33195512953954
 p    3 1.00
          3.0885463206    0.32917682676976
          1.1791047769    0.55491385190365
         0.43369774432    0.23818412855984
 p    1 1.00
              0.120675                   1
 d    4 1.00
          27.559479426   0.036950140313562
          7.4687020327    0.18821519783039
          2.4345903574    0.44641244239929
         0.78244754808     0.5681617303244
 d    1 1.00
         0.21995774311                   1
 f    1 1.00
                 1.147                   1

3 0
 s    5 1.00
          2266.1767785  -0.0053893503921743
          340.87010191   -0.04023472138896
          77.363135167   -0.18008184205526
           21.47964494   -0.46828857657651
          6.6589433124   -0.44692617160187
 s    1 1.00
         0.80975975668                   1
 s    1 1.00
         0.25530772234                   1
 p    3 1.00
          17.721504317   0.062630248763161
           3.863550544    0.33331138482352
          1.0480920883    0.74148638308122
 p    1 1.00
         0.27641544411                   1
 d    1 1.00
                   1.2                   1

4 0
 s    5 1.00
          1712.8415853  -0.0054477995804909
          257.64812677  -0.040627174632423
          58.458245853   -0.18111962250584
          16.198367905   -0.46843975563173
          5.0052600809   -0.44616846289231
 s    1 1.00
         0.58731856571                   1
 s    1 1.00
         0.18764592253                   1
 p    3 1.00
          13.571470233  -0.058848116969522
          2.9257372874   -0.32024624762471
         0.79927750754   -0.75328226520436
 p    1 1.00
         0.21954348034                   1
 d    1 1.00
                     1                   1

5 0
 s    3 1.00
             13.010701   0.033485484812989
             1.9622572    0.23472187088125
            0.44453796    0.81377028525955
 s    1 1.00
            0.12194962                   1
 p    1 1.00
                   0.8                   1

6 0
 s    3 1.00
             13.010701   0.033485484812989
             1.9622572    0.23472187088125
            0.44453796    0.81377028525955
 s    1 1.00
            0.12194962                   1
 p    1 1.00
                   0.8                   1

7 0
 s    3 1.00
             13.010701   0.033485484812989
             1.9622572    0.23472187088125
            0.44453796    0.81377028525955
 s    1 1.00
            0.12194962                   1
 p    1 1.00
                   0.8                   1

8 0
 s    5 1.00
          1712.8415853  -0.0054477995804909
          257.64812677  -0.040627174632423
          58.458245853   -0.18111962250584
          16.198367905   -0.46843975563173
          5.0052600809   -0.44616846289231
 s    1 1.00
         0.58731856571                   1
 s    1 1.00
         0.18764592253                   1
 p    3 1.00
          13.571470233  -0.058848116969522
          2.9257372874   -0.32024624762471
         0.79927750754   -0.75328226520436
 p    1 1.00
         0.21954348034                   1
 d    1 1.00
                     1                   1

9 0
 s    3 1.00
             13.010701   0.033485484812989
             1.9622572    0.23472187088125
            0.44453796    0.81377028525955
 s    1 1.00
            0.12194962                   1
 p    1 1.00
                   0.8                   1

10 0
 s    3 1.00
             13.010701   0.033485484812989
             1.9622572    0.23472187088125
            0.44453796    0.81377028525955
 s    1 1.00
            0.12194962                   1
 p    1 1.00
                   0.8                   1

11 0
 s    3 1.00
             13.010701   0.033485484812989
             1.9622572    0.23472187088125
            0.44453796    0.81377028525955
 s    1 1.00
            0.12194962                   1
 p    1 1.00
                   0.8                   1

12 0
 s    5 1.00
          1712.8415853  -0.0054477995804909
          257.64812677  -0.040627174632423
          58.458245853   -0.18111962250584
          16.198367905   -0.46843975563173
          5.0052600809   -0.44616846289231
 s    1 1.00
         0.58731856571                   1
 s    1 1.00
         0.18764592253                   1
 p    3 1.00
          13.571470233  -0.058848116969522
          2.9257372874   -0.32024624762471
         0.79927750754   -0.75328226520436
 p    1 1.00
         0.21954348034                   1
 d    1 1.00
                     1                   1

13 0
 s    3 1.00
             13.010701   0.033485484812989
             1.9622572    0.23472187088125
            0.44453796    0.81377028525955
 s    1 1.00
            0.12194962                   1
 p    1 1.00
                   0.8                   1

14 0
 s    3 1.00
             13.010701   0.033485484812989
             1.9622572    0.23472187088125
            0.44453796    0.81377028525955
 s    1 1.00
            0.12194962                   1
 p    1 1.00
                   0.8                   1

15 0
 s    3 1.00
             13.010701   0.033485484812989
             1.9622572    0.23472187088125
            0.44453796    0.81377028525955
 s    1 1.00
            0.12194962                   1
 p    1 1.00
                   0.8                   1

16 0
 s    5 1.00
          1712.8415853  -0.0054477995804909
          257.64812677  -0.040627174632423
          58.458245853   -0.18111962250584
          16.198367905   -0.46843975563173
          5.0052600809   -0.44616846289231
 s    1 1.00
         0.58731856571                   1
 s    1 1.00
         0.18764592253                   1
 p    3 1.00
          13.571470233  -0.058848116969522
          2.9257372874   -0.32024624762471
         0.79927750754   -0.75328226520436
 p    1 1.00
         0.21954348034                   1
 d    1 1.00
                     1                   1

17 0
 s    3 1.00
             13.010701   0.033485484812989
             1.9622572    0.23472187088125
            0.44453796    0.81377028525955
 s    1 1.00
            0.12194962                   1
 p    1 1.00
                   0.8                   1

18 0
 s    3 1.00
             13.010701   0.033485484812989
             1.9622572    0.23472187088125
            0.44453796    0.81377028525955
 s    1 1.00
            0.12194962                   1
 p    1 1.00
                   0.8                   1

19 0
 s    3 1.00
             13.010701   0.033485484812989
             1.9622572    0.23472187088125
            0.44453796    0.81377028525955
 s    1 1.00
            0.12194962                   1
 p    1 1.00
                   0.8                   1

20 0
 s    5 1.00
          1712.8415853  -0.0054477995804909
          257.64812677  -0.040627174632423
          58.458245853   -0.18111962250584
          16.198367905   -0.46843975563173
          5.0052600809   -0.44616846289231
 s    1 1.00
         0.58731856571                   1
 s    1 1.00
         0.18764592253                   1
 p    3 1.00
          13.571470233  -0.058848116969522
          2.9257372874   -0.32024624762471
         0.79927750754   -0.75328226520436
 p    1 1.00
         0.21954348034                   1
 d    1 1.00
                     1                   1

21 0
 s    3 1.00
             13.010701   0.033485484812989
             1.9622572    0.23472187088125
            0.44453796    0.81377028525955
 s    1 1.00
            0.12194962                   1
 p    1 1.00
                   0.8                   1

22 0
 s    3 1.00
             13.010701   0.033485484812989
             1.9622572    0.23472187088125
            0.44453796    0.81377028525955
 s    1 1.00
            0.12194962                   1
 p    1 1.00
                   0.8                   1

23 0
 s    3 1.00
             13.010701   0.033485484812989
             1.9622572    0.23472187088125
            0.44453796    0.81377028525955
 s    1 1.00
            0.12194962                   1
 p    1 1.00
                   0.8                   1

24 0
 s    5 1.00
          1712.8415853  -0.0054477995804909
          257.64812677  -0.040627174632423
          58.458245853   -0.18111962250584
          16.198367905   -0.46843975563173
          5.0052600809   -0.44616846289231
 s    1 1.00
         0.58731856571                   1
 s    1 1.00
         0.18764592253                   1
 p    3 1.00
          13.571470233  -0.058848116969522
          2.9257372874   -0.32024624762471
         0.79927750754   -0.75328226520436
 p    1 1.00
         0.21954348034                   1
 d    1 1.00
                     1                   1

25 0
 s    3 1.00
             13.010701   0.033485484812989
             1.9622572    0.23472187088125
            0.44453796    0.81377028525955
 s    1 1.00
            0.12194962                   1
 p    1 1.00
                   0.8                   1

26 0
 s    3 1.00
             13.010701   0.033485484812989
             1.9622572    0.23472187088125
            0.44453796    0.81377028525955
 s    1 1.00
            0.12194962                   1
 p    1 1.00
                   0.8                   1

27 0
 s    3 1.00
             13.010701   0.033485484812989
             1.9622572    0.23472187088125
            0.44453796    0.81377028525955
 s    1 1.00
            0.12194962                   1
 p    1 1.00
                   0.8                   1

28 0
 s    5 1.00
          1712.8415853  -0.0054477995804909
          257.64812677  -0.040627174632423
          58.458245853   -0.18111962250584
          16.198367905   -0.46843975563173
          5.0052600809   -0.44616846289231
 s    1 1.00
         0.58731856571                   1
 s    1 1.00
         0.18764592253                   1
 p    3 1.00
          13.571470233  -0.058848116969522
          2.9257372874   -0.32024624762471
         0.79927750754   -0.75328226520436
 p    1 1.00
         0.21954348034                   1
 d    1 1.00
                     1                   1

29 0
 s    3 1.00
             13.010701   0.033485484812989
             1.9622572    0.23472187088125
            0.44453796    0.81377028525955
 s    1 1.00
            0.12194962                   1
 p    1 1.00
                   0.8                   1

30 0
 s    3 1.00
             13.010701   0.033485484812989
             1.9622572    0.23472187088125
            0.44453796    0.81377028525955
 s    1 1.00
            0.12194962                   1
 p    1 1.00
                   0.8                   1

31 0
 s    3 1.00
             13.010701   0.033485484812989
             1.9622572    0.23472187088125
            0.44453796    0.81377028525955
 s    1 1.00
            0.12194962                   1
 p    1 1.00
                   0.8                   1

32 0
 s    5 1.00
          1712.8415853  -0.0054477995804909
          257.64812677  -0.040627174632423
          58.458245853   -0.18111962250584
          16.198367905   -0.46843975563173
          5.0052600809   -0.44616846289231
 s    1 1.00
         0.58731856571                   1
 s    1 1.00
         0.18764592253                   1
 p    3 1.00
          13.571470233  -0.058848116969522
          2.9257372874   -0.32024624762471
         0.79927750754   -0.75328226520436
 p    1 1.00
         0.21954348034                   1
 d    1 1.00
                     1                   1

33 0
 s    3 1.00
             13.010701   0.033485484812989
             1.9622572    0.23472187088125
            0.44453796    0.81377028525955
 s    1 1.00
            0.12194962                   1
 p    1 1.00
                   0.8                   1

34 0
 s    3 1.00
             13.010701   0.033485484812989
             1.9622572    0.23472187088125
            0.44453796    0.81377028525955
 s    1 1.00
            0.12194962                   1
 p    1 1.00
                   0.8                   1

35 0
 s    3 1.00
             13.010701   0.033485484812989
             1.9622572    0.23472187088125
            0.44453796    0.81377028525955
 s    1 1.00
            0.12194962                   1
 p    1 1.00
                   0.8                   1

36 0
 s    5 1.00
          1712.8415853  -0.0054477995804909
          257.64812677  -0.040627174632423
          58.458245853   -0.18111962250584
          16.198367905   -0.46843975563173
          5.0052600809   -0.44616846289231
 s    1 1.00
         0.58731856571                   1
 s    1 1.00
         0.18764592253                   1
 p    3 1.00
          13.571470233  -0.058848116969522
          2.9257372874   -0.32024624762471
         0.79927750754   -0.75328226520436
 p    1 1.00
         0.21954348034                   1
 d    1 1.00
                     1                   1

37 0
 s    3 1.00
             13.010701   0.033485484812989
             1.9622572    0.23472187088125
            0.44453796    0.81377028525955
 s    1 1.00
            0.12194962                   1
 p    1 1.00
                   0.8                   1

38 0
 s    3 1.00
             13.010701   0.033485484812989
             1.9622572    0.23472187088125
            0.44453796    0.81377028525955
 s    1 1.00
            0.12194962                   1
 p    1 1.00
                   0.8                   1

39 0
 s    3 1.00
             13.010701   0.033485484812989
             1.9622572    0.23472187088125
            0.44453796    0.81377028525955
 s    1 1.00
            0.12194962                   1
 p    1 1.00
                   0.8                   1

40 0
 s    5 1.00
          1712.8415853  -0.0054477995804909
          257.64812677  -0.040627174632423
          58.458245853   -0.18111962250584
          16.198367905   -0.46843975563173
          5.0052600809   -0.44616846289231
 s    1 1.00
         0.58731856571                   1
 s    1 1.00
         0.18764592253                   1
 p    3 1.00
          13.571470233  -0.058848116969522
          2.9257372874   -0.32024624762471
         0.79927750754   -0.75328226520436
 p    1 1.00
         0.21954348034                   1
 d    1 1.00
                     1                   1

41 0
 s    3 1.00
             13.010701   0.033485484812989
             1.9622572    0.23472187088125
            0.44453796    0.81377028525955
 s    1 1.00
            0.12194962                   1
 p    1 1.00
                   0.8                   1

42 0
 s    3 1.00
             13.010701   0.033485484812989
             1.9622572    0.23472187088125
            0.44453796    0.81377028525955
 s    1 1.00
            0.12194962                   1
 p    1 1.00
                   0.8                   1

43 0
 s    3 1.00
             13.010701   0.033485484812989
             1.9622572    0.23472187088125
            0.44453796    0.81377028525955
 s    1 1.00
            0.12194962                   1
 p    1 1.00
                   0.8                   1

[5d]
[7f]
[9g]

[MO]
 Sym= A
 Ene=               0
 Spin= Alpha
 Occup=    1.00000
   1    0.0049754927052883
   2     0.024566646636116
   3      0.19698943142992
   4      0.56892006816275
   5      0.33332783464267
   6    -0.00029731296706682
   7    0.00047437881797564
   8    0.00036235310419688
   9    0.0018847143644879
  10    -0.0029945211749398
  11    -0.0022566650658351
  12    0.0016163496693919
  13    -0.002338512807742
  14    -0.0011767682194382
  15    0.00014169557948169
  16    0.00090630305339828
  17    -0.0014541879211177
  18    0.00058207508805075
  19    0.0012045473347147
  20    0.00068439937712095
  21     0.001930066648407
  22    -0.0027945175963019
  23    0.0012021174728667
  24    0.0028093667669133
  25    0.00075126334239127
  26    0.00017991189286035
  27    -0.00030580290995351
  28    0.00054772595569368
  29    0.0011927054297079
  30    -0.00085824973527772
  31    -0.00010490324388086
  32    1.6826843315682e-05
  33    0.00012818695645907
  34    0.0016610936620278
  35      0.07058923586023
  36       0.1093370097984
  37    -0.00011819269796915
  38    0.0001906098676301
  39    0.00014637246347683
  40    0.0027245527546403
  41    -0.0043283541155813
  42    -0.003242405822664
  43     0.042893332452255
  44    -0.067588667468205
  45    -0.049962948248599
  46    -0.0001585448124124
  47    -0.00099023210506425
  48    0.0015751549337375
  49    -0.00063653555469334
  50    -0.0013156037230887
  51    -0.003618004085168
  52    -0.019043479208185
  53     0.030003943093402
  54    -0.012139380169079
  55    -0.025741649878348
  56    0.00094100721710839
  57    0.00025942549459988
  58    -0.00040585298694034
  59    0.00070552628347419
  60     0.001488187183163
  61    -0.0010586494129238
  62    -0.00012448820101992
  63    -0.0045359134672152
  64     0.050313815253655
  65      0.18076021304679
  66    0.0061717870732593
  67    -0.0098038519001931
  68    -0.0073547932566225
  69     0.074405887448547
  70     -0.11701406823073
  71    -0.085708812954843
  72    -0.00062282982417441
  73    -0.003086486772735
  74    0.0048553354400472
  75    -0.0019589224375511
  76      -0.0041570306846
  77    -0.0035587286949861
  78     0.039120896482418
  79      0.15136664692524
  80     0.015798042661866
  81     0.006349342299887
  82    0.0055734775807718
  83     -0.15732905290683
  84    -0.060139166103236
  85    -0.052240817342063
  86    -0.0049389666616444
  87    0.0062016945544594
  88    0.0026123961675692
  89    0.0079956725839917
  90    0.0071994991083937
  91      0.02655628096399
  92     0.092696182228514
  93    -0.013622555596639
  94    -0.0011828882004344
  95    0.00079157359552695
  96     0.025340215621649
  97     0.093548845163589
  98    -0.0099493326489699
  99    -0.0013017610205504
 100    -0.0096060657088563
 101      0.02687903156106
 102      0.10224017549768
 103    -0.010662246670833
 104     -0.01069417771196
 105    -0.0031554205269697
 106    -0.0035504874706583
 107     0.039214599640349
 108      0.15112189359074
 109    0.00049238765848882
 110     0.011131374437644
 111    -0.013991677172578
 112    -0.0053982054809419
 113     -0.10711419877193
 114      0.13963867521452
 115    0.0060072220668521
 116    -0.00052426633256405
 117    -0.011393081937384
 118    -0.0045673130019468
 119    0.00055534487721033
 120      0.02739735395422
 121      0.10501214389051
 122    0.0045803720616657
 123    -0.011959460643187
 124    0.0093001943737947
 125     0.026395072391994
 126     0.092010995071545
 127    0.00029449684209199
 128    -0.0028703475807341
 129     0.013314260064197
 130     0.025651690402225
 131     0.092842320901902
 132    -0.0060853686567217
 133    -0.0096296727664034
 134    0.0075802399680504
 135    -0.0035579664369384
 136     0.039127905587449
 137      0.15138600145482
 138    -0.00085373550557014
 139    -0.010707512972009
 140      0.01435139873037
 141    0.0074406952355729
 142      0.10833962377652
 143     -0.13893633445302
 144    0.0060210507409571
 145    -0.00085849889813007
 146     -0.01129235853057
 147    -0.0045370904115881
 148    0.00057428661861579
 149     0.026598179918078
 150     0.092929458013367
 151    -0.00052620226600076
 152     0.012255779678429
 153    -0.0061529102012725
 154     0.026763615948609
 155      0.10160214410024
 156    0.0065344544119837
 157    0.0068053914796824
 158    -0.012094439521372
 159     0.025380305620015
 160     0.093847056403332
 161    -0.0045960273993351
 162    0.0042180020475392
 163     -0.01246590879043
 164    -0.0035525223386163
 165     0.039183564124716
 166      0.15144336064452
 167    -0.016098189954461
 168    -0.0058248298359402
 169    -0.005303160993303
 170      0.15663945854486
 171     0.059176957278686
 172     0.054467045280425
 173    -0.0048256658360049
 174    0.0063303409562057
 175    0.0025143857691523
 176    0.0081658286735547
 177    0.0070484063095098
 178     0.025653471056207
 179     0.093671675929277
 180     0.011538856986112
 181    0.0074074546264403
 182    -0.001848392875968
 183     0.026324922072046
 184     0.092027817446355
 185     0.008290578080424
 186    0.0065422585210365
 187    0.0085958398297508
 188     0.027209627377018
 189      0.10334305290102
 190     0.014898158049552
 191    -0.0010927508158601
 192    0.0045007594775658
 193    -0.0035583046407776
 194     0.039469376556717
 195      0.15356622719301
 196    0.0082219661168461
 197    -0.012934435408148
 198    -0.0095353150697458
 199    -0.081275223448536
 200      0.12815298179803
 201      0.09456936197426
 202    -0.0010891367842665
 203    -0.0057677064412872
 204     0.009133436329602
 205    -0.0036773835741872
 206    -0.0078411939762044
 207     0.026269517645196
 208     0.094649255582157
 209    -0.006841582724603
 210    0.0043741224295905
 211     0.011008006753804
 212     0.026215773965935
 213     0.094232158092248
 214    9.8959711573709e-05
 215     0.011771733995167
 216    0.0068876477508477
 217     0.026650264359939
 218     0.095988616146272
 219    -0.0095840888377359
 220    0.0099065027254356
 221    0.0019790573187698
 222    6.0843869940811e-05
 223    -0.00038496020441002
 224    0.0040870413507468
 225    -0.0002560833630159
 226    2.2110393898659e-05
 227    0.00014123187334947
 228     0.011617241426708
 229    -0.0040510520284385
 230    -0.0032204758550236
 231    -0.00030336665594738
 232    -0.0002120819384121
 233    0.00042976068980418
 234    0.00041280692099642
 235    -0.00020790724181054
 236    0.00096499263175531
 237     0.015266142066821
 238    0.0029970896777828
 239    -0.0003443342820726
 240    -0.00091668548518076
 241    -0.0010392602616228
 242    0.00013021041559918
 243    -0.00026748912523602
 244    -0.00012236382467839
 245    0.00041406320522901
 246    -0.00046086710846555
 247    -0.0035389612446341
 248    -0.00016461204606276
 249    7.5111795224583e-05
 250    -0.00045966057589417
 251    6.2030745693546e-05
 252    -0.00036752027337119
 253    0.0037608809107256
 254    2.4586154620337e-07
 255    2.2655469653889e-05
 256    0.00023251983277163
 257    0.0038917489475122
 258    -0.0025006188291683
 259    -0.011524376378525
 260    0.00047804667313741
 261    -0.00032965416081793
 262    6.8813462807355e-05
 263    -0.0002710207303456
 264    -0.00025563533558051
 265    -0.00043169128978943
 266    -0.0039446034370423
 267    -0.0004949061447412
 268    -0.00031949409553543
 269    8.6234247135632e-05
 270    0.0016331447569985
 271     0.018633065145476
 272    0.00072355256087854
 273    -0.00028642489239127
 274    -0.0039216732518575
 275    -0.0012047383718759
 276    -0.0013813936680167
 277    0.0002822617925329
 278    0.00018784806375048
 279    0.0006331778381195
 280    6.1778191958642e-05
 281    -0.00037343473170783
 282    0.0037966064177221
 283    8.3083551006149e-05
 284    0.00011454125713943
 285    0.00018396656441914
 286    -0.0024585889121758
 287    -0.0091042055524964
 288    -0.0082529406203283
 289    -6.67135870739e-05
 290    0.00010516295718288
 291    0.00068722923996925
 292    1.7825246237353e-05
 293    6.4594993597488e-05
 294    -0.00039965908627342
 295    -0.003930156537242
 296    0.00025704175436317
 297    0.00040955707129343
 298    -0.00030543440633472
 299    -0.0012172102604344
 300    -0.001001473463982
 301    0.00014361143022212
 302    3.1525187239922e-05
 303    0.00066300107555416
 304     0.001510140839537
 305      0.01804617220468
 306    -0.0013443306784397
 307    -0.0023758832029509
 308    -0.0027236782052484
 309    6.2024206312609e-05
 310    -0.0003466370464415
 311    0.0042303632524448
 312    -2.5756290468017e-05
 313    0.00034212627915029
 314    -8.0033114458818e-06
 315    0.0038682904925099
 316    -0.012073134759445
 317    0.00092649596879719
 318    -7.6392490371657e-05
 319    -0.00018775729738935
 320    -4.7482122447215e-05
 321    -0.00061201729252875
 322    -0.0004197637752456
 323    -0.00043259722257553
 324    -0.0034337823430693
 325    -0.00016271958230351
 326    -8.05267510426e-05
 327    -0.00039600092196121
 328    -0.00095815536535629
 329    0.0014776912929785
 330    0.00030452396627931
 331    0.00020055952962212
 332    0.0002342216489973
 333    0.00038279723936968
 334     0.012034214330761
 335    0.00013753088411739
 336    -0.002333195741495
 337    0.00033474698694272
 338    -4.6100423837639e-05
 339    -0.00054486217100528
 340    -0.0016579545716015
 341    0.00029384518212227
 342    -0.00046110757041957
 343    -0.0003308170566202