[Molden Format]
made by pyscf v[2.4.0]
[Atoms] (AU)
Fe   1   26     0.00000000000000     2.37070017058927    -0.00000337316113
N   2   7     0.00000000000000     5.25680037820174     3.01839684408003
H   3   1     0.00000000000000     4.88130035117953     4.94749698281281
H   4   1     1.38970009993718     6.62100047639746     3.28399686312780
O   5   8     0.00000000000000     0.00000000000000    -2.72710356950381
H   6   1     0.00000000000000     0.00000000000000    -4.65470370807857
Fe   7   26     0.00000000000000    -2.37070017058927    -0.00000337316113
N   8   7     0.00000000000000    -5.25680037820174     3.01839684408003
N   9   7     2.61400018813191     5.25680037820174    -1.50920348178171
N   10   7     2.61400018813191    -5.25680037820174    -1.50920348178171
N   11   7    -2.61400018813191     5.25680037820174    -1.50920348178171
N   12   7    -2.61400018813191    -5.25680037820174    -1.50920348178171
H   13   1     0.00000000000000    -4.88130035117953     4.94749698281281
H   14   1     4.28470030834864     4.88130035117953    -2.47380355122266
H   15   1     4.28470030834864    -4.88130035117953    -2.47380355122266
H   16   1    -4.28470030834864     4.88130035117953    -2.47380355122266
H   17   1    -4.28470030834864    -4.88130035117953    -2.47380355122266
H   18   1     1.38970009993718    -6.62100047639746     3.28399686312780
H   19   1    -1.38970009993718     6.62100047639746     3.28399686312780
H   20   1    -1.38970009993718    -6.62100047639746     3.28399686312780
H   21   1     2.14920015475106     6.62100047639746    -2.84560357801887
H   22   1     2.14920015475106    -6.62100047639746    -2.84560357801887
H   23   1     3.53890025468824     6.62100047639746    -0.43850340474144
H   24   1     3.53890025468824    -6.62100047639746    -0.43850340474144
H   25   1    -3.53890025468824     6.62100047639746    -0.43850340474144
H   26   1    -3.53890025468824    -6.62100047639746    -0.43850340474144
H   27   1    -2.14920015475106     6.62100047639746    -2.84560357801887
H   28   1    -2.14920015475106    -6.62100047639746    -2.84560357801887
O   29   8    -2.36180016997925     0.00000000000000     1.36359672489579
O   30   8     2.36180016997925     0.00000000000000     1.36359672489579
H   31   1    -4.03110028999810     0.00000000000000     2.32729679431752
H   32   1     4.03110028999810     0.00000000000000     2.32729679431752
[GTO]
1 0
 s    6 1.00
          60923.640643  0.0017552243692958
          9147.8893982   0.013449023284001
          2081.3505927   0.066678874640978
          587.55977067    0.23176348548844
           191.0904399    0.46945550248188
          65.732730112     0.3596824938678
 s    3 1.00
          127.25891928   -0.10723431835929
           14.83091301    0.62971616328466
          6.0653307408    0.44472317896179
 s    3 1.00
           10.44994371   -0.21694289195548
          1.7245228003    0.69457867408393
         0.71772177325    0.43298308896347
 s    1 1.00
        0.091449828308                   1
 s    1 1.00
        0.033706691021                   1
 p    5 1.00
          773.43750995  0.0091440529992506
          182.15149714   0.067887577136571
          57.547272758    0.26167978878504
          20.614988935    0.51088040113251
           7.634855789    0.33235475570224
 p    3 1.00
           3.871932799    0.33193859098144
          1.4924724132     0.5553666555499
         0.56061284958    0.23106034201617
 p    1 1.00
              0.134915                   1
 d    4 1.00
          38.968133419   0.033335938558743
          10.800067078    0.17766212505983
          3.6136457999      0.441281781625
          1.2129967888    0.57089200490673
 d    1 1.00
          0.3652439317                   1
 f    1 1.00
                 1.598                   1

2 0
 s    5 1.00
          1712.8415853  -0.0054477995804909
          257.64812677  -0.040627174632423
          58.458245853   -0.18111962250584
          16.198367905   -0.46843975563173
          5.0052600809   -0.44616846289231
 s    1 1.00
         0.58731856571                   1
 s    1 1.00
         0.18764592253                   1
 p    3 1.00
          13.571470233  -0.058848116969522
          2.9257372874   -0.32024624762471
         0.79927750754   -0.75328226520436
 p    1 1.00
         0.21954348034                   1
 d    1 1.00
                     1                   1

3 0
 s    3 1.00
             13.010701   0.033485484812989
             1.9622572    0.23472187088125
            0.44453796    0.81377028525955
 s    1 1.00
            0.12194962                   1
 p    1 1.00
                   0.8                   1

4 0
 s    3 1.00
             13.010701   0.033485484812989
             1.9622572    0.23472187088125
            0.44453796    0.81377028525955
 s    1 1.00
            0.12194962                   1
 p    1 1.00
                   0.8                   1

5 0
 s    5 1.00
          2266.1767785  -0.0053893503921743
          340.87010191   -0.04023472138896
          77.363135167   -0.18008184205526
           21.47964494   -0.46828857657651
          6.6589433124   -0.44692617160187
 s    1 1.00
         0.80975975668                   1
 s    1 1.00
         0.25530772234                   1
 p    3 1.00
          17.721504317   0.062630248763161
           3.863550544    0.33331138482352
          1.0480920883    0.74148638308122
 p    1 1.00
         0.27641544411                   1
 d    1 1.00
                   1.2                   1

6 0
 s    3 1.00
             13.010701   0.033485484812989
             1.9622572    0.23472187088125
            0.44453796    0.81377028525955
 s    1 1.00
            0.12194962                   1
 p    1 1.00
                   0.8                   1

7 0
 s    6 1.00
          60923.640643  0.0017552243692958
          9147.8893982   0.013449023284001
          2081.3505927   0.066678874640978
          587.55977067    0.23176348548844
           191.0904399    0.46945550248188
          65.732730112     0.3596824938678
 s    3 1.00
          127.25891928   -0.10723431835929
           14.83091301    0.62971616328466
          6.0653307408    0.44472317896179
 s    3 1.00
           10.44994371   -0.21694289195548
          1.7245228003    0.69457867408393
         0.71772177325    0.43298308896347
 s    1 1.00
        0.091449828308                   1
 s    1 1.00
        0.033706691021                   1
 p    5 1.00
          773.43750995  0.0091440529992506
          182.15149714   0.067887577136571
          57.547272758    0.26167978878504
          20.614988935    0.51088040113251
           7.634855789    0.33235475570224
 p    3 1.00
           3.871932799    0.33193859098144
          1.4924724132     0.5553666555499
         0.56061284958    0.23106034201617
 p    1 1.00
              0.134915                   1
 d    4 1.00
          38.968133419   0.033335938558743
          10.800067078    0.17766212505983
          3.6136457999      0.441281781625
          1.2129967888    0.57089200490673
 d    1 1.00
          0.3652439317                   1
 f    1 1.00
                 1.598                   1

8 0
 s    5 1.00
          1712.8415853  -0.0054477995804909
          257.64812677  -0.040627174632423
          58.458245853   -0.18111962250584
          16.198367905   -0.46843975563173
          5.0052600809   -0.44616846289231
 s    1 1.00
         0.58731856571                   1
 s    1 1.00
         0.18764592253                   1
 p    3 1.00
          13.571470233  -0.058848116969522
          2.9257372874   -0.32024624762471
         0.79927750754   -0.75328226520436
 p    1 1.00
         0.21954348034                   1
 d    1 1.00
                     1                   1

9 0
 s    5 1.00
          1712.8415853  -0.0054477995804909
          257.64812677  -0.040627174632423
          58.458245853   -0.18111962250584
          16.198367905   -0.46843975563173
          5.0052600809   -0.44616846289231
 s    1 1.00
         0.58731856571                   1
 s    1 1.00
         0.18764592253                   1
 p    3 1.00
          13.571470233  -0.058848116969522
          2.9257372874   -0.32024624762471
         0.79927750754   -0.75328226520436
 p    1 1.00
         0.21954348034                   1
 d    1 1.00
                     1                   1

10 0
 s    5 1.00
          1712.8415853  -0.0054477995804909
          257.64812677  -0.040627174632423
          58.458245853   -0.18111962250584
          16.198367905   -0.46843975563173
          5.0052600809   -0.44616846289231
 s    1 1.00
         0.58731856571                   1
 s    1 1.00
         0.18764592253                   1
 p    3 1.00
          13.571470233  -0.058848116969522
          2.9257372874   -0.32024624762471
         0.79927750754   -0.75328226520436
 p    1 1.00
         0.21954348034                   1
 d    1 1.00
                     1                   1

11 0
 s    5 1.00
          1712.8415853  -0.0054477995804909
          257.64812677  -0.040627174632423
          58.458245853   -0.18111962250584
          16.198367905   -0.46843975563173
          5.0052600809   -0.44616846289231
 s    1 1.00
         0.58731856571                   1
 s    1 1.00
         0.18764592253                   1
 p    3 1.00
          13.571470233  -0.058848116969522
          2.9257372874   -0.32024624762471
         0.79927750754   -0.75328226520436
 p    1 1.00
         0.21954348034                   1
 d    1 1.00
                     1                   1

12 0
 s    5 1.00
          1712.8415853  -0.0054477995804909
          257.64812677  -0.040627174632423
          58.458245853   -0.18111962250584
          16.198367905   -0.46843975563173
          5.0052600809   -0.44616846289231
 s    1 1.00
         0.58731856571                   1
 s    1 1.00
         0.18764592253                   1
 p    3 1.00
          13.571470233  -0.058848116969522
          2.9257372874   -0.32024624762471
         0.79927750754   -0.75328226520436
 p    1 1.00
         0.21954348034                   1
 d    1 1.00
                     1                   1

13 0
 s    3 1.00
             13.010701   0.033485484812989
             1.9622572    0.23472187088125
            0.44453796    0.81377028525955
 s    1 1.00
            0.12194962                   1
 p    1 1.00
                   0.8                   1

14 0
 s    3 1.00
             13.010701   0.033485484812989
             1.9622572    0.23472187088125
            0.44453796    0.81377028525955
 s    1 1.00
            0.12194962                   1
 p    1 1.00
                   0.8                   1

15 0
 s    3 1.00
             13.010701   0.033485484812989
             1.9622572    0.23472187088125
            0.44453796    0.81377028525955
 s    1 1.00
            0.12194962                   1
 p    1 1.00
                   0.8                   1

16 0
 s    3 1.00
             13.010701   0.033485484812989
             1.9622572    0.23472187088125
            0.44453796    0.81377028525955
 s    1 1.00
            0.12194962                   1
 p    1 1.00
                   0.8                   1

17 0
 s    3 1.00
             13.010701   0.033485484812989
             1.9622572    0.23472187088125
            0.44453796    0.81377028525955
 s    1 1.00
            0.12194962                   1
 p    1 1.00
                   0.8                   1

18 0
 s    3 1.00
             13.010701   0.033485484812989
             1.9622572    0.23472187088125
            0.44453796    0.81377028525955
 s    1 1.00
            0.12194962                   1
 p    1 1.00
                   0.8                   1

19 0
 s    3 1.00
             13.010701   0.033485484812989
             1.9622572    0.23472187088125
            0.44453796    0.81377028525955
 s    1 1.00
            0.12194962                   1
 p    1 1.00
                   0.8                   1

20 0
 s    3 1.00
             13.010701   0.033485484812989
             1.9622572    0.23472187088125
            0.44453796    0.81377028525955
 s    1 1.00
            0.12194962                   1
 p    1 1.00
                   0.8                   1

21 0
 s    3 1.00
             13.010701   0.033485484812989
             1.9622572    0.23472187088125
            0.44453796    0.81377028525955
 s    1 1.00
            0.12194962                   1
 p    1 1.00
                   0.8                   1

22 0
 s    3 1.00
             13.010701   0.033485484812989
             1.9622572    0.23472187088125
            0.44453796    0.81377028525955
 s    1 1.00
            0.12194962                   1
 p    1 1.00
                   0.8                   1

23 0
 s    3 1.00
             13.010701   0.033485484812989
             1.9622572    0.23472187088125
            0.44453796    0.81377028525955
 s    1 1.00
            0.12194962                   1
 p    1 1.00
                   0.8                   1

24 0
 s    3 1.00
             13.010701   0.033485484812989
             1.9622572    0.23472187088125
            0.44453796    0.81377028525955
 s    1 1.00
            0.12194962                   1
 p    1 1.00
                   0.8                   1

25 0
 s    3 1.00
             13.010701   0.033485484812989
             1.9622572    0.23472187088125
            0.44453796    0.81377028525955
 s    1 1.00
            0.12194962                   1
 p    1 1.00
                   0.8                   1

26 0
 s    3 1.00
             13.010701   0.033485484812989
             1.9622572    0.23472187088125
            0.44453796    0.81377028525955
 s    1 1.00
            0.12194962                   1
 p    1 1.00
                   0.8                   1

27 0
 s    3 1.00
             13.010701   0.033485484812989
             1.9622572    0.23472187088125
            0.44453796    0.81377028525955
 s    1 1.00
            0.12194962                   1
 p    1 1.00
                   0.8                   1

28 0
 s    3 1.00
             13.010701   0.033485484812989
             1.9622572    0.23472187088125
            0.44453796    0.81377028525955
 s    1 1.00
            0.12194962                   1
 p    1 1.00
                   0.8                   1

29 0
 s    5 1.00
          2266.1767785  -0.0053893503921743
          340.87010191   -0.04023472138896
          77.363135167   -0.18008184205526
           21.47964494   -0.46828857657651
          6.6589433124   -0.44692617160187
 s    1 1.00
         0.80975975668                   1
 s    1 1.00
         0.25530772234                   1
 p    3 1.00
          17.721504317   0.062630248763161
           3.863550544    0.33331138482352
          1.0480920883    0.74148638308122
 p    1 1.00
         0.27641544411                   1
 d    1 1.00
                   1.2                   1

30 0
 s    5 1.00
          2266.1767785  -0.0053893503921743
          340.87010191   -0.04023472138896
          77.363135167   -0.18008184205526
           21.47964494   -0.46828857657651
          6.6589433124   -0.44692617160187
 s    1 1.00
         0.80975975668                   1
 s    1 1.00
         0.25530772234                   1
 p    3 1.00
          17.721504317   0.062630248763161
           3.863550544    0.33331138482352
          1.0480920883    0.74148638308122
 p    1 1.00
         0.27641544411                   1
 d    1 1.00
                   1.2                   1

31 0
 s    3 1.00
             13.010701   0.033485484812989
             1.9622572    0.23472187088125
            0.44453796    0.81377028525955
 s    1 1.00
            0.12194962                   1
 p    1 1.00
                   0.8                   1

32 0
 s    3 1.00
             13.010701   0.033485484812989
             1.9622572    0.23472187088125
            0.44453796    0.81377028525955
 s    1 1.00
            0.12194962                   1
 p    1 1.00
                   0.8                   1

[5d]
[7f]
[9g]

[MO]
 Sym= A
 Ene=               0
 Spin= Alpha
 Occup=    1.00000
   1    0.00066613946529064
   2    -0.0021879080815853
   3     0.008026392909889
   4    0.0084028872678243
   5    -0.0037835061938553
   6    -2.7819903032118e-17
   7    -0.0027486257794157
   8    2.2414830526047e-07
   9    9.4770570687561e-17
  10    0.0087608518497968
  11    -6.9951393012707e-07
  12    -8.9001785930449e-16
  13      -0.0400472211162
  14    8.6746168485669e-07
  15     -0.44033525915564
  16    -3.8583526784417e-14
  17    -2.7821207511581e-05
  18     -0.76273273161485
  19    -2.7690044524004e-14
  20     -0.12189643726495
  21    -1.1706723047274e-14
  22    -7.3195263314787e-06
  23     -0.21114399672536
  24    -4.7920573063768e-15
  25    -0.00022916788401006
  26    -1.8603156638286e-19
  27    0.00053474950919609
  28    0.00017749680636623
  29    -3.9484743511821e-18
  30    -7.4181278370018e-18
  31    0.00069032360427707
  32    -0.0037470823319419
  33    -0.0084724750554323
  34    -0.005139408162805
  35    -7.1444988202138e-16
  36    -0.00017461877937976
  37    -0.017426289208228
  38    5.0959469620951e-16
  39    0.0024664024338845
  40    0.0087265535324738
  41    0.0018622708098883
  42    6.6139605960286e-17
  43    -0.00011987963486704
  44    0.00042866682058092
  45    1.0785128693529e-16
  46     0.014605443063146
  47    0.0051285438531659
  48    2.9721028097857e-17
  49    0.00077998961534142
  50    -0.00070211133109251
  51    -0.0036618347691101
  52    -0.00069434596426004
  53    0.00020434979489994
  54    -0.000150549159196
  55    0.0011765243656062
  56    -0.0037996432015563
  57    -0.0056552787423721
  58    -0.023194693776194
  59    -3.6691724768715e-15
  60     0.032865505082035
  61    -0.027041323093461
  62    -3.3492972537502e-15
  63     0.026303030182203
  64    -0.025785319132108
  65    0.0015607002699995
  66    5.1309643151494e-17
  67    0.00047392946139973
  68    0.00063911592892472
  69    8.4571406103301e-17
  70     0.021383742539548
  71    0.0045006589792527
  72    -1.4581998488486e-16
  73    0.00092162390949313
  74    0.0021075791258114
  75    0.0015993871445301
  76    -0.0045276258987098
  77     0.022486139280994
  78    -0.038172897524946
  79    0.0057636225203935
  80    -1.6490657311779e-16
  81    -0.0018362131760433
  82    1.2450565368845e-07
  83    5.1667574829071e-16
  84    0.0066835370703352
  85    -3.9129724059109e-07
  86    -5.5215146048723e-16
  87    -0.014926054163179
  88    -4.3516324483477e-07
  89    0.0055548462520004
  90    -1.3545806690226e-16
  91    -1.2376967681966e-07
  92    0.0096213853993768
  93    -3.8108058277411e-17
  94    0.0015959444097762
  95    5.3652599778444e-16
  96    -7.8098059332625e-08
  97    0.0027643725334846
  98    1.9684017041519e-16
  99    0.00042334256633655
 100    2.3503686851992e-18
 101    -0.00073740816186542
 102    -0.00032800436157953
 103    2.1781935201228e-17
 104    3.4287319002028e-18
 105    -0.000951886386096
 106     0.001638262419533
 107    0.0033893299592427
 108    0.0062248010305186
 109    1.2265159989689e-19
 110    -0.004322383739151
 111    0.0024234847236748
 112    6.1612514803116e-17
 113    0.0033711938252684
 114    -0.0022530612084706
 115    0.00014391593588427
 116    5.2803669976625e-18
 117    0.00016126077015777
 118    0.0001338368764164
 119    -9.5096699282458e-18
 120    -0.0037478766390868
 121    -0.008474110202683
 122     -0.00514143458174
 123     -0.01509361883076
 124    -0.00017525247630085
 125    0.0087136112107177
 126    0.0075593454207911
 127    0.0024667833905059
 128    -0.0043639692528393
 129    4.5638383082594e-05
 130    -0.001211114145856
 131    5.9979062801164e-05
 132     0.001477583073102
 133    -0.00010377162783721
 134    0.0016381464129791
 135    0.0033891065223965
 136    0.0062243075784693
 137      0.00209853133765
 138    -0.0043220736403216
 139    -0.0012115898615281
 140    -0.0019508073551435
 141    0.0033709197833473
 142    0.0011263198393869
 143    6.8939834149849e-05
 144    -4.998224809308e-05
 145    -8.0631550908095e-05
 146    0.00017711602804314
 147    0.00013966008688994
 148    -0.0037478766390871
 149    -0.0084741102026838
 150    -0.005141434581741
 151     0.015093618830761
 152    -0.00017525247630117
 153     0.008713611210719
 154    -0.0075593454207909
 155    0.0024667833905057
 156    -0.0043639692528398
 157    4.5638383082597e-05
 158    0.0012111141458562
 159    5.997906280095e-05
 160    0.0014775830731021
 161    0.00010377162783711
 162     0.001638146412979
 163    0.0033891065223961
 164    0.0062243075784686
 165    -0.0020985313376499
 166    -0.0043220736403212
 167    -0.001211589861528
 168    0.0019508073551433
 169     0.003370919783347
 170    0.0011263198393868
 171    6.8939834149858e-05
 172    4.9982248093054e-05
 173    -8.0631550908099e-05
 174    0.00017711602804311
 175    -0.00013966008688997
 176    0.00046385283559988
 177    -0.00025495438634376
 178    -2.5474214067914e-18
 179    0.0002103857047964
 180    -8.4588369734565e-05
 181     0.014606675023502
 182    0.0051294961345891
 183    -0.00060815950648185
 184    0.00078006891834895
 185    0.00035117583663606
 186    0.00046383430373581
 187    -0.00025477102427424
 188    -7.3255069739737e-05
 189    0.00021038073458841
 190    4.2296220044512e-05
 191     0.014606675023503
 192    0.0051294961345897
 193    0.00060815950648188
 194    0.00078006891834913
 195    0.00035117583663605
 196    0.00046383430373566
 197    -0.00025477102427395
 198    7.3255069739753e-05
 199    0.00021038073458841
 200    4.2296220044523e-05
 201    -0.0017021238150019
 202    -0.0011423913233591
 203    0.00022427166934948
 204    8.7803005848354e-05
 205    -0.00012647989350973
 206    -0.0036618347691113
 207    -0.0006943459642605
 208    -0.00020434979489996
 209    -0.00015054915919595
 210    0.0011765243656063
 211    -0.0017021238150019
 212    -0.0011423913233591
 213    -0.00022427166934947
 214    8.7803005848367e-05
 215    -0.00012647989350973
 216    -0.0036619105544024
 217    -0.00069447212695091
 218    0.00091684466983685
 219    -0.00015051965234318
 220    -0.00076526431936763
 221    -0.0017020636895396
 222    -0.0011424157216883
 223    -0.00022166355202952
 224    8.7790422594404e-05
 225    -0.00013098448692778
 226    -0.0036611496714915
 227    -0.00069406941090572
 228    0.0011211447987328
 229    -0.00015059473433023
 230    -0.00041137955794468
 231    -0.0017020439252922
 232    -0.0011424149929148
 233    2.5958776602554e-06
 234    8.7794226151267e-05
 235    0.00025746072176317
 236    -0.0036611496714921
 237    -0.00069406941090582
 238    -0.0011211447987329
 239    -0.00015059473433019
 240    -0.00041137955794479
 241    -0.0017020439252921
 242    -0.0011424149929148
 243    -2.5958776602338e-06
 244    8.7794226151259e-05
 245    0.00025746072176316
 246    -0.0036619105544018
 247    -0.00069447212695054
 248    -0.00091684466983702
 249    -0.00015051965234318
 250    -0.00076526431936765
 251    -0.0017020636895394
 252    -0.0011424157216883
 253    0.00022166355202952
 254    8.7790422594394e-05
 255    -0.00013098448692775
 256    -0.003799304012852
 257    -0.0056545846937079
 258    -0.023193783686577
 259    -0.023417683613439
 260     0.032865942044358
 261     0.013517816119926
 262    -0.022329254695574
 263      0.02630330470411
 264     0.012889680085142
 265    0.00021996820403251
 266    -0.00089361298681605
 267    -0.00023686716881757
 268     0.001413055711071
 269    0.00041028459181743
 270    -0.0037993040128517
 271    -0.0056545846937068
 272    -0.023193783686577
 273     0.023417683613438
 274     0.032865942044359
 275      0.01351781611993
 276     0.022329254695571
 277     0.026303304704113
 278     0.012889680085145
 279    0.00021996820403249
 280    0.00089361298681619
 281    -0.00023686716881784
 282     0.001413055711071
 283    -0.00041028459181775
 284     0.021382329178289
 285    0.0044994090843336
 286    0.0018251369166338
 287    0.0009217427161734
 288    -0.0010537356898636
 289      0.02138232917829
 290    0.0044994090843341
 291    -0.0018251369166338
 292    0.00092174271617317
 293    -0.0010537356898634
 Sym= A
 Ene=               1
 Spin= Alpha
 Occup=    1.00000
   1    -5.1247324324393e-08
   2    1.6065585756075e-07
   3    -6.493241610045e-07
   4    2.2232888306092e-07
   5    7.7051139568954e-08
   6    -6.3046844714519e-14
   7    -2.5337166887072e-09
   8    -0.0002535117624195
   9    2.2170652719778e-13
  10    -9.3092058037418e-10
  11    0.00089148419797752
  12    -1.4585114411808e-12
  13    1.5178285929024e-06
  14    -0.005865062615609
  15      0.64538790860242
  16    -1.8532388705509e-10
  17     -0.47577858246757
  18     -0.37257352240976
  19    -1.1832435754511e-10
  20      0.17010085599847
  21    -4.8844495521632e-11
  22     -0.12657220650574
  23    -0.098196354315954
  24    -3.1479882380808e-11
  25    -0.00022576113249958
  26    -2.2905737926613e-14
  27    0.00041680650940781
  28    -0.00029141627090881
  29    -1.3110213647526e-13
  30    -8.8734492630461e-14
  31    -0.00032287799844033
  32    0.0030444386067341
  33    0.0059209349620841
  34     0.011239178993066
  35    -3.3514739207106e-12
  36    0.0021092748194235
  37     0.011248354056915
  38    2.0158546844562e-12
  39    -0.0042169431818017
  40    -0.010210809297205
  41    -0.00096936056191794
  42    2.834615012457e-13
  43    -1.8946989155524e-05
  44    -0.00047004825102358
  45    4.9030835528612e-13
  46    -0.0074793954609423
  47    -0.0041425510009516
  48    2.0837189531009e-13
  49    -0.00047469257228408
  50    0.00029334312068361
  51    0.0012186212986307
  52    0.00020814432609811
  53    -8.4365460270872e-05
  54    0.0001399926429091
  55    -0.00036297635977042
  56    0.00018589286869107
  57    0.0010068861769542
  58    -0.0025962488930434
  59    -1.7403104065458e-11
  60    -0.021014181292377
  61     0.010032939107042
  62    -1.5685099630103e-11
  63    -0.017703921011327
  64    0.0062408384714912
  65    -0.00096703596779859
  66    1.4781968880422e-13
  67    -0.00041866293370324
  68    -0.00057539956473418
  69    3.3110252951337e-13
  70    -0.0088364259294724
  71    -0.0019809921302462
  72    -6.6533622783753e-13
  73    -0.00047828254838884
  74    -0.00069984015271841
  75    -1.1590378091957e-07
  76    3.3376721372109e-07
  77    -1.6013372175394e-06
  78    2.4515868152084e-06
  79    -8.788880462234e-07
  80    -8.5809565837184e-13
  81    2.4965110850238e-07
  82    -0.0034504438722712
  83    2.7424523827474e-12
  84    -8.318613344928e-07
  85     0.011027505474497
  86    -4.5649876147907e-12
  87    1.2370823863128e-06
  88    -0.018353496184064
  89    -0.00047508413865992
  90    1.3658387408139e-13
  91    -0.002483863111424
  92    0.00027375841918958
  93    -6.1688987509027e-13
  94    -0.0012032713013731
  95    3.4489781127819e-13
  96    -0.0046912472331988
  97    0.00069438414946561
  98    -1.1680616807915e-12
  99    -4.3168689380827e-05
 100    -4.3817777157186e-15
 101    -0.00015223342989137
 102    -5.5678194792783e-05
 103    4.7880615938795e-14
 104    -1.6934666661694e-14
 105    0.0001179818865012
 106    0.0015213218769821
 107    0.0033091961839441
 108     0.007693701208102
 109    4.669049743211e-15
 110    -0.0039570601795586
 111     0.001325590574026
 112    5.3640284245341e-13
 113    0.0031813911869211
 114    -0.0016475093205907
 115    0.00021110760680082
 116    1.3690960852039e-15
 117    6.6782052464722e-05
 118    0.00012214639484809
 119    -2.6925641869793e-14
 120    -0.0015220403601874
 121    -0.0029600399650875
 122    -0.0056195723557725
 123    -0.010705492034459
 124    -0.0010545847225296
 125    -0.0072956748867265
 126    0.0079310669665445
 127    0.0021082557899301
 128    0.0035265437267909
 129    -0.00064832844564573
 130    0.00023193313918007
 131    0.0014738902953856
 132    0.00088905677149112
 133    0.00086189673336483
 134    -0.00076077768287519
 135    -0.0016548409388497
 136    -0.0038472071577959
 137    -0.00056601779440182
 138    0.0019788368662055
 139    0.00034554336614937
 140    0.0016472610159107
 141    -0.0015909615395204
 142     0.001205626004674
 143    -3.0050968767247e-05
 144    5.5103177683244e-05
 145    -6.4492862187088e-05
 146    -0.00010468073514911
 147    -7.5807362477129e-05
 148    -0.0015220403614991
 149    -0.0029600399676384
 150    -0.0056195723606147
 151      0.01070549203698
 152    -0.0010545847234387
 153    -0.0072956748814014
 154    -0.0079310669693465
 155    0.0021082557917473
 156    0.0035265437228456
 157    -0.0006483284453538
 158    -0.0002319331388129
 159     0.001473890294957
 160    0.00088905677176611
 161    -0.00086189673312668
 162    -0.00076077768353052
 163    -0.0016548409402752
 164    -0.0038472071611101
 165    0.00056601779489873
 166    0.0019788368679101
 167    0.00034554336643082
 168    -0.0016472610162566
 169    -0.0015909615408907
 170    0.0012056260038549
 171    -3.0050968789063e-05
 172    -5.5103177727946e-05
 173    -6.4492862149324e-05
 174    -0.00010468073524168
 175    7.5807362488679e-05
 176    0.0014845284289926
 177    -0.0025847719030853
 178    -4.1714587384828e-14
 179    0.00015194602066196
 180    4.9192052098143e-05
 181    0.0037390192696456
 182    0.0020712281499386
 183    0.00023581857275956
 184    0.00023728366346702
 185    0.00070179717806508
 186    -0.00074226703026428
 187    0.0012924265156155
 188    -9.3908996970927e-05
 189    -7.5985007363426e-05
 190    -0.00011346871902653
 191    0.0037390192728672
 192    0.0020712281517231
 193    -0.00023581857254592
 194    0.00023728366367143
 195    0.0007017971779478
 196    -0.0007422670309036
 197    0.0012924265167289
 198    9.3908996968411e-05
 199    -7.5985007428941e-05