[Molden Format]
made by pyscf v[2.3.0]
[Atoms] (AU)
Fe   1   26     3.17068844873907     0.00098706064664     0.12237737881307
O   2   8     0.00000000000000     0.00000000000000    -0.89004350580623
Fe   3   26    -3.17068844873907    -0.00098706064664     0.12237737881307
Cl   4   17     3.53383895113107    -2.07485195383062     3.76228752659000
Cl   5   17     5.54152580550813    -1.85590924879884    -2.78672786652360
Cl   6   17     4.48169216485503     3.92976278472880    -0.95330240907949
Cl   7   17    -3.53383895113107     2.07485195383062     3.76228752659000
Cl   8   17    -5.54152580550813     1.85590924879884    -2.78672786652360
Cl   9   17    -4.48169216485503    -3.92976278472880    -0.95330240907949
[GTO]
1 0
 s   21 1.00
               4316265  0.00015003000025155
              646342.4  0.00043597000073097
              147089.7  0.0012036500020181
              41661.52  0.0031263500052418
              13590.77  0.0081459100136578
               4905.75   0.021338920035778
              1912.746   0.054708380091726
              792.6043    0.12845394021537
              344.8065    0.25203824042258
              155.8999    0.35484986059496
              72.23091    0.27043078045342
              32.72506   0.064760860108581
              15.66762  -0.0011046600018521
              7.503483  0.0018455500030943
              3.312223  -0.00085600000143521
              1.558471  0.00037119000062235
              0.683914  -0.00014687000024625
              0.146757  6.0970000102225e-05
              0.070583  -5.7890000097061e-05
              0.031449  2.7700000046443e-05
               0.01258  -7.2200000121054e-06
 s   21 1.00
               4316265  -4.6220000480211e-05
              646342.4  -0.00013445000139689
              147089.7  -0.0003718400038633
              41661.52  -0.00096889001006646
              13590.77  -0.0025394800263844
               4905.75  -0.0067300100699227
              1912.746  -0.017681600183706
              792.6043  -0.043754100454591
              344.8065  -0.096011110997525
              155.8999    -0.1699859917661
              72.23091   -0.18456376191756
              32.72506   0.058263000605334
              15.66762    0.52163758541965
              7.503483    0.49331062512534
              3.312223   0.086326700896907
              1.558471  -0.0028501700296124
              0.683914  0.0016556900172021
              0.146757  -0.00049176000510923
              0.070583  0.00047608000494632
              0.031449  -0.00022820000237093
               0.01258  6.2970000654238e-05
 s   21 1.00
               4316265  1.7099999823348e-05
              646342.4  4.9749999486056e-05
              147089.7  0.00013757999857873
              41661.52  0.00035878999629351
              13590.77  0.00094020999028713
               4905.75  0.0024985999741881
              1912.746  0.0065710299321178
              792.6043    0.01640472983053
              344.8065   0.036371569624262
              155.8999   0.066649369311477
              72.23091   0.075536819219665
              32.72506  -0.025868059732769
              15.66762   -0.31230229677375
              7.503483    -0.4499765353515
              3.312223    0.14773373847383
              1.558471    0.72995708245916
              0.683914      0.384588466027
              0.146757   0.015828899836479
              0.070583  -0.0094953699019078
              0.031449   0.003080379968178
               0.01258  -0.0010052599896151
 s   21 1.00
               4316265  -3.530000014952e-06
              646342.4  -1.0260000043458e-05
              147089.7  -2.8380000120209e-05
              41661.52  -7.3970000313315e-05
              13590.77  -0.00019410000082215
               4905.75  -0.00051496000218121
              1912.746  -0.0013580100057521
              792.6043  -0.0033829700143292
              344.8065  -0.0075412100319423
              155.8999  -0.013800660058455
              72.23091  -0.015887360067294
              32.72506  0.0057036300241588
              15.66762   0.068072610288335
              7.503483    0.10526256044586
              3.312223  -0.045624630193252
              1.558471   -0.21341607090397
              0.683914   -0.24353659103155
              0.146757    0.34358715145533
              0.070583    0.46401833196544
              0.031449    0.34688312146929
               0.01258   0.012258410051923
 s   21 1.00
               4316265  4.2300000083928e-06
              646342.4  1.2340000024484e-05
              147089.7  3.400000006746e-05
              41661.52  8.934000017726e-05
              13590.77  0.00023098000045829
               4905.75  0.00062709000124422
              1912.746  0.0016013500031773
              792.6043  0.0041618100082575
              344.8065  0.0087735900174078
              155.8999   0.017383460034491
              72.23091   0.017189430034106
              32.72506  -0.0019660200039008
              15.66762   -0.09285258018423
              7.503483   -0.11350600022521
              3.312223   0.018124570035961
              1.558471     0.4126803608188
              0.683914    0.10339104020514
              0.146757   -0.89083095176751
              0.070583   -0.80961283160636
              0.031449      1.523089463022
               0.01258     0.0914261901814
 p   15 1.00
              7721.489  0.0003528699992897
              1829.126   0.001969279996036
               593.628  0.0096173699806408
              226.2054   0.037242729925033
              95.26145    0.11332296977189
               42.8592    0.25335171949002
              20.04971    0.38104214923299
              9.620885    0.30703249938196
              4.541371    0.08654533982579
                2.1135   0.003599239992755
              0.947201  0.0014405899971002
              0.391243  -0.00029900999939811
              0.156497  0.00020350999959035
              0.062599  -9.6259999806235e-05
               0.02504  2.8809999942007e-05
 p   15 1.00
              7721.489  -0.00012803000093384
              1829.126  -0.0007151700052164
               593.628  -0.0035210800256825
              226.2054  -0.013790650100588
              95.26145  -0.043314520315933
               42.8592   -0.10061222073386
              20.04971    -0.1616137711788
              9.620885   -0.11214083081795
              4.541371    0.18501865134951
                2.1135    0.47893080349329
              0.947201    0.40514792295512
              0.391243   0.098721600720068
              0.156497  -0.0014859200108382
              0.062599  0.0022297700162638
               0.02504  -0.00072259000527052
 p   15 1.00
              7721.489  -0.0001366300005471
              1829.126  -0.00077790000311493
               593.628  -0.0037504200150177
              226.2054  -0.015167410060734
              95.26145  -0.047052060188409
               42.8592   -0.11529630046168
              20.04971   -0.17017078068141
              9.620885    -0.1322083005294
              4.541371     0.5379758221542
                2.1135     0.6119970124506
              0.947201   -0.64465308258137
              0.391243   -0.61225551245164
              0.156497    0.10798966043242
              0.062599    0.37358045149592
               0.02504    0.18782870075212
 p   15 1.00
              7721.489  3.8450000073416e-05
              1829.126  0.00021618000041277
               593.628  0.0010569700020182
              226.2054  0.0041842400079893
              95.26145   0.013078170024971
               42.8592   0.030955100059105
              20.04971   0.048968490093499
              9.620885    0.03516849006715
              4.541371  -0.083386120159215
                2.1135   -0.17709305033814
              0.947201   -0.11907766022736
              0.391243    0.12237413023366
              0.156497    0.54998130105012
              0.062599    0.39970337076318
               0.02504   0.082982750158445
 d   10 1.00
              217.3688  0.00096699000005415
              64.99976  0.0079329400004442
              24.77314   0.035483140001987
              10.43614    0.10769519000603
              4.679653    0.22555488001263
              2.125622    0.31942979001789
              0.945242    0.32354390001812
              0.402685    0.24338270001363
              0.156651    0.10680569000598
               0.06266    0.02052711000115
 d   10 1.00
              217.3688  -0.00098326999334898
              64.99976  -0.0078969399465836
              24.77314   -0.03644789975346
              10.43614   -0.10760711927213
              4.679653   -0.26104795823422
              2.125622    -0.2908550880326
              0.945242   0.012548209915122
              0.402685    0.40386045726821
              0.156651    0.38672482738412
               0.06266    0.24394499834991
 f    6 1.00
               11.2749   0.038021959880794
                 4.469    0.25501828920047
                1.7713    0.50897997840425
                0.7021    0.35473515888783
                0.2783    0.12763296959985
                0.1103   0.019468309938963

2 0
 s   14 1.00
             105374.95  0.00012386000128961
              15679.24  0.00051201000533097
             3534.5447  0.0021529100224158
             987.36516  0.0085284400887969
             315.97875   0.030180490314235
             111.65428   0.090997020947448
             42.699451    0.21779364226764
             17.395596    0.36862457383806
              7.438309    0.33667073350537
              3.222862   0.096576301005538
              1.253877  0.0021445200223284
              0.495155  0.0011943500124354
              0.191665  0.0005390200056122
              0.067083  0.00021034000219003
 s   14 1.00
             105374.95  -2.8150000076236e-05
              15679.24  -0.00011630000031496
             3534.5447  -0.00049092000132951
             987.36516  -0.0019461600052706
             315.97875  -0.0070053000189718
             111.65428  -0.021678140058709
             42.699451  -0.056412130152776
             17.395596   -0.11270530030523
              7.438309   -0.15891197043037
              3.222862  -0.033550830090863
              1.253877    0.35319028095651
              0.495155    0.55341993149878
              0.191665    0.23018391062339
              0.067083   0.011272670030529
 s   14 1.00
             105374.95  2.6159999812637e-05
              15679.24  0.00010747999923021
             3534.5447  0.0004597199967074
             987.36516  0.0017955499871399
             315.97875  0.0066757399521871
             111.65428   0.020534449852928
             42.699451   0.058286019582544
             17.395596    0.12129690913125
              7.438309    0.22641474837837
              3.222862  -0.042386999696416
              1.253877    -1.0104553727629
              0.495155   -0.15386867889796
              0.191665     0.9934531928847
              0.067083    0.18587253866874
 p    9 1.00
                   200  0.00091730000298931
             46.533367  0.0073771400240407
             14.621809   0.034835150113521
              5.313064    0.11443970037294
              2.102525    0.25549664083262
              0.850223    0.37225574121311
              0.337597    0.33233149108301
              0.128892    0.14008479045651
              0.045112   0.023957840078074
 p    9 1.00
                   200  -0.00087213000535403
             46.533367  -0.0070642400433676
             14.621809   -0.03330489020446
              5.313064   -0.11441275070238
              2.102525   -0.29901068183564
              0.850223   -0.31986054196363
              0.337597    0.20550900126163
              0.128892    0.59359268364408
              0.045112    0.28229027173299
 d    4 1.00
                  3.75    0.13609758017809
                1.3125    0.51401475067263
              0.459375    0.47407125062036
              0.160781    0.08166905010687

3 0
 s   21 1.00
               4316265  0.00015003000025155
              646342.4  0.00043597000073097
              147089.7  0.0012036500020181
              41661.52  0.0031263500052418
              13590.77  0.0081459100136578
               4905.75   0.021338920035778
              1912.746   0.054708380091726
              792.6043    0.12845394021537
              344.8065    0.25203824042258
              155.8999    0.35484986059496
              72.23091    0.27043078045342
              32.72506   0.064760860108581
              15.66762  -0.0011046600018521
              7.503483  0.0018455500030943
              3.312223  -0.00085600000143521
              1.558471  0.00037119000062235
              0.683914  -0.00014687000024625
              0.146757  6.0970000102225e-05
              0.070583  -5.7890000097061e-05
              0.031449  2.7700000046443e-05
               0.01258  -7.2200000121054e-06
 s   21 1.00
               4316265  -4.6220000480211e-05
              646342.4  -0.00013445000139689
              147089.7  -0.0003718400038633
              41661.52  -0.00096889001006646
              13590.77  -0.0025394800263844
               4905.75  -0.0067300100699227
              1912.746  -0.017681600183706
              792.6043  -0.043754100454591
              344.8065  -0.096011110997525
              155.8999    -0.1699859917661
              72.23091   -0.18456376191756
              32.72506   0.058263000605334
              15.66762    0.52163758541965
              7.503483    0.49331062512534
              3.312223   0.086326700896907
              1.558471  -0.0028501700296124
              0.683914  0.0016556900172021
              0.146757  -0.00049176000510923
              0.070583  0.00047608000494632
              0.031449  -0.00022820000237093
               0.01258  6.2970000654238e-05
 s   21 1.00
               4316265  1.7099999823348e-05
              646342.4  4.9749999486056e-05
              147089.7  0.00013757999857873
              41661.52  0.00035878999629351
              13590.77  0.00094020999028713
               4905.75  0.0024985999741881
              1912.746  0.0065710299321178
              792.6043    0.01640472983053
              344.8065   0.036371569624262
              155.8999   0.066649369311477
              72.23091   0.075536819219665
              32.72506  -0.025868059732769
              15.66762   -0.31230229677375
              7.503483    -0.4499765353515
              3.312223    0.14773373847383
              1.558471    0.72995708245916
              0.683914      0.384588466027
              0.146757   0.015828899836479
              0.070583  -0.0094953699019078
              0.031449   0.003080379968178
               0.01258  -0.0010052599896151
 s   21 1.00
               4316265  -3.530000014952e-06
              646342.4  -1.0260000043458e-05
              147089.7  -2.8380000120209e-05
              41661.52  -7.3970000313315e-05
              13590.77  -0.00019410000082215
               4905.75  -0.00051496000218121
              1912.746  -0.0013580100057521
              792.6043  -0.0033829700143292
              344.8065  -0.0075412100319423
              155.8999  -0.013800660058455
              72.23091  -0.015887360067294
              32.72506  0.0057036300241588
              15.66762   0.068072610288335
              7.503483    0.10526256044586
              3.312223  -0.045624630193252
              1.558471   -0.21341607090397
              0.683914   -0.24353659103155
              0.146757    0.34358715145533
              0.070583    0.46401833196544
              0.031449    0.34688312146929
               0.01258   0.012258410051923
 s   21 1.00
               4316265  4.2300000083928e-06
              646342.4  1.2340000024484e-05
              147089.7  3.400000006746e-05
              41661.52  8.934000017726e-05
              13590.77  0.00023098000045829
               4905.75  0.00062709000124422
              1912.746  0.0016013500031773
              792.6043  0.0041618100082575
              344.8065  0.0087735900174078
              155.8999   0.017383460034491
              72.23091   0.017189430034106
              32.72506  -0.0019660200039008
              15.66762   -0.09285258018423
              7.503483   -0.11350600022521
              3.312223   0.018124570035961
              1.558471     0.4126803608188
              0.683914    0.10339104020514
              0.146757   -0.89083095176751
              0.070583   -0.80961283160636
              0.031449      1.523089463022
               0.01258     0.0914261901814
 p   15 1.00
              7721.489  0.0003528699992897
              1829.126   0.001969279996036
               593.628  0.0096173699806408
              226.2054   0.037242729925033
              95.26145    0.11332296977189
               42.8592    0.25335171949002
              20.04971    0.38104214923299
              9.620885    0.30703249938196
              4.541371    0.08654533982579
                2.1135   0.003599239992755
              0.947201  0.0014405899971002
              0.391243  -0.00029900999939811
              0.156497  0.00020350999959035
              0.062599  -9.6259999806235e-05
               0.02504  2.8809999942007e-05
 p   15 1.00
              7721.489  -0.00012803000093384
              1829.126  -0.0007151700052164
               593.628  -0.0035210800256825
              226.2054  -0.013790650100588
              95.26145  -0.043314520315933
               42.8592   -0.10061222073386
              20.04971    -0.1616137711788
              9.620885   -0.11214083081795
              4.541371    0.18501865134951
                2.1135    0.47893080349329
              0.947201    0.40514792295512
              0.391243   0.098721600720068
              0.156497  -0.0014859200108382
              0.062599  0.0022297700162638
               0.02504  -0.00072259000527052
 p   15 1.00
              7721.489  -0.0001366300005471
              1829.126  -0.00077790000311493
               593.628  -0.0037504200150177
              226.2054  -0.015167410060734
              95.26145  -0.047052060188409
               42.8592   -0.11529630046168
              20.04971   -0.17017078068141
              9.620885    -0.1322083005294
              4.541371     0.5379758221542
                2.1135     0.6119970124506
              0.947201   -0.64465308258137
              0.391243   -0.61225551245164
              0.156497    0.10798966043242
              0.062599    0.37358045149592
               0.02504    0.18782870075212
 p   15 1.00
              7721.489  3.8450000073416e-05
              1829.126  0.00021618000041277
               593.628  0.0010569700020182
              226.2054  0.0041842400079893
              95.26145   0.013078170024971
               42.8592   0.030955100059105
              20.04971   0.048968490093499
              9.620885    0.03516849006715
              4.541371  -0.083386120159215
                2.1135   -0.17709305033814
              0.947201   -0.11907766022736
              0.391243    0.12237413023366
              0.156497    0.54998130105012
              0.062599    0.39970337076318
               0.02504   0.082982750158445
 d   10 1.00
              217.3688  0.00096699000005415
              64.99976  0.0079329400004442
              24.77314   0.035483140001987
              10.43614    0.10769519000603
              4.679653    0.22555488001263
              2.125622    0.31942979001789
              0.945242    0.32354390001812
              0.402685    0.24338270001363
              0.156651    0.10680569000598
               0.06266    0.02052711000115
 d   10 1.00
              217.3688  -0.00098326999334898
              64.99976  -0.0078969399465836
              24.77314   -0.03644789975346
              10.43614   -0.10760711927213
              4.679653   -0.26104795823422
              2.125622    -0.2908550880326
              0.945242   0.012548209915122
              0.402685    0.40386045726821
              0.156651    0.38672482738412
               0.06266    0.24394499834991
 f    6 1.00
               11.2749   0.038021959880794
                 4.469    0.25501828920047
                1.7713    0.50897997840425
                0.7021    0.35473515888783
                0.2783    0.12763296959985
                0.1103   0.019468309938963

4 0
 s   17 1.00
             399432.47  0.00030483999979349
             56908.833  0.00097689999933823
             16874.769  0.0021382899985515
             6010.0278  0.0059694099959562
              2303.283   0.016181889989038
             915.65994    0.04523016996936
             371.72009    0.11792450992012
             152.89109    0.26154411982282
             63.436303    0.40192153972773
             26.481723    0.26874481981795
             11.104112   0.032816939977769
             4.6716289  0.0035591799975889
              1.970452  -0.0017077799988431
             0.8327946  0.0012973499991211
             0.3525409  -0.00065904999955354
             0.1494341  0.0002457899998335
             0.0597736  -1.459999999011e-06
 s   17 1.00
             399432.47  -8.5440000252327e-05
             56908.833  -0.00027415000080964
             16874.769  -0.00060181000177731
             6010.0278  -0.001684910004976
              2303.283  -0.0046144000136276
             915.65994  -0.013129400038775
             371.72009  -0.035909770106051
             152.89109   -0.08838331026102
             63.436303   -0.17459524051563
             26.481723   -0.17768036052474
             11.104112    0.15212083044925
             4.6716289    0.62550754184729
              1.970452    0.36355752107368
             0.8327946  0.0096020400283574
             0.3525409   0.026352210077825
             0.1494341  0.0047660600140755
             0.0597736  0.00086954000256799
 s   17 1.00
             399432.47  2.8049999954254e-05
             56908.833  8.9929999853334e-05
             16874.769   0.000198049999677
             6010.0278  0.00055164999910032
              2303.283  0.0015233499975156
             915.65994  0.0043047099929795
             371.72009   0.011934569980536
             152.89109   0.029371349952099
             63.436303   0.060214619901797
             26.481723   0.062571659897953
             11.104112  -0.056611739907673
             4.6716289   -0.32750974946587
              1.970452   -0.34199198944225
             0.8327946    0.31850882948055
             0.3525409    0.66176116892074
             0.1494341    0.27830910954611
             0.0597736   0.016827229972557
 s   17 1.00
             399432.47  -2.5939999936789e-05
             56908.833  -8.3269999797086e-05
             16874.769  -0.00018238999955555
             6010.0278  -0.00051267999875069
              2303.283  -0.0013955699965992
             915.65994  -0.0039968199902605
             371.72009  -0.010840949973583
             152.89109  -0.026894559934463
             63.436303  -0.053084409870643
             26.481723   -0.05725504986048
             11.104112   0.064326739843247
             4.6716289    0.30253799926277
              1.970452     0.5130468087498
             0.8327946    -1.1309193472442
             0.3525409   -0.72817380822557
             0.1494341     1.1741330371388
             0.0597736    0.32946195919716
 p   12 1.00
             1288.9716  0.00093569998795284
              312.2443   0.006125189921138
             111.34634   0.025628039670038
             43.736087   0.092817558804972
             17.856524    0.24346159686543
             7.4327659    0.41401587466954
             3.1282538    0.34722987552941
             1.3257214   0.076468709015463
             0.5644191  0.0021224899726729
             0.2410741  -0.0007908799898174
             0.1032089  -0.00020295999738689
             0.0412836  -9.273999880597e-05
 p   12 1.00
             1288.9716  -0.00024782000099467
              312.2443  -0.0016265400065284
             111.34634  -0.0068710200275781
             43.736087  -0.025357550101777
             17.856524  -0.068740670275903
             7.4327659   -0.12202766048978
             3.1282538   -0.10596481042531
             1.3257214    0.13708383055021
             0.5644191    0.42571611170869
             0.2410741    0.41428846166282
             0.1032089    0.18204070073065
             0.0412836   0.030111650120859
 p   12 1.00
             1288.9716  0.00024047000076546
              312.2443  0.0015279500048637
             111.34634  0.0067375300214468
             43.736087   0.023887840076039
             17.856524   0.068773230218917
             7.4327659    0.11190534035621
             3.1282538    0.12059088038386
             1.3257214   -0.22523997071698
             0.5644191   -0.64105309204059
             0.2410741   0.051740530164699
             0.1032089    0.69480634221169
             0.0412836    0.30411632096806
 d    5 1.00
             3.6204561   0.026701639990782
             1.4775717    0.17231496994051
              0.603023    0.58274039979882
             0.2461043     0.3374559298835
             0.0984417   0.049178809983022

5 0
 s   17 1.00
             399432.47  0.00030483999979349
             56908.833  0.00097689999933823
             16874.769  0.0021382899985515
             6010.0278  0.0059694099959562
              2303.283   0.016181889989038
             915.65994    0.04523016996936
             371.72009    0.11792450992012
             152.89109    0.26154411982282
             63.436303    0.40192153972773
             26.481723    0.26874481981795
             11.104112   0.032816939977769
             4.6716289  0.0035591799975889
              1.970452  -0.0017077799988431
             0.8327946  0.0012973499991211
             0.3525409  -0.00065904999955354
             0.1494341  0.0002457899998335
             0.0597736  -1.459999999011e-06
 s   17 1.00
             399432.47  -8.5440000252327e-05
             56908.833  -0.00027415000080964
             16874.769  -0.00060181000177731
             6010.0278  -0.001684910004976
              2303.283  -0.0046144000136276
             915.65994  -0.013129400038775
             371.72009  -0.035909770106051
             152.89109   -0.08838331026102
             63.436303   -0.17459524051563
             26.481723   -0.17768036052474
             11.104112    0.15212083044925
             4.6716289    0.62550754184729
              1.970452    0.36355752107368
             0.8327946  0.0096020400283574
             0.3525409   0.026352210077825
             0.1494341  0.0047660600140755
             0.0597736  0.00086954000256799
 s   17 1.00
             399432.47  2.8049999954254e-05
             56908.833  8.9929999853334e-05
             16874.769   0.000198049999677
             6010.0278  0.00055164999910032
              2303.283  0.0015233499975156
             915.65994  0.0043047099929795
             371.72009   0.011934569980536
             152.89109   0.029371349952099
             63.436303   0.060214619901797
             26.481723   0.062571659897953
             11.104112  -0.056611739907673
             4.6716289   -0.32750974946587
              1.970452   -0.34199198944225
             0.8327946    0.31850882948055
             0.3525409    0.66176116892074
             0.1494341    0.27830910954611
             0.0597736   0.016827229972557
 s   17 1.00
             399432.47  -2.5939999936789e-05
             56908.833  -8.3269999797086e-05
             16874.769  -0.00018238999955555
             6010.0278  -0.00051267999875069
              2303.283  -0.0013955699965992
             915.65994  -0.0039968199902605
             371.72009  -0.010840949973583
             152.89109  -0.026894559934463
             63.436303  -0.053084409870643
             26.481723   -0.05725504986048
             11.104112   0.064326739843247
             4.6716289    0.30253799926277
              1.970452     0.5130468087498
             0.8327946    -1.1309193472442
             0.3525409   -0.72817380822557
             0.1494341     1.1741330371388
             0.0597736    0.32946195919716
 p   12 1.00
             1288.9716  0.00093569998795284
              312.2443   0.006125189921138
             111.34634   0.025628039670038
             43.736087   0.092817558804972
             17.856524    0.24346159686543
             7.4327659    0.41401587466954
             3.1282538    0.34722987552941
             1.3257214   0.076468709015463
             0.5644191  0.0021224899726729
             0.2410741  -0.0007908799898174
             0.1032089  -0.00020295999738689
             0.0412836  -9.273999880597e-05
 p   12 1.00
             1288.9716  -0.00024782000099467
              312.2443  -0.0016265400065284
             111.34634  -0.0068710200275781
             43.736087  -0.025357550101777
             17.856524  -0.068740670275903
             7.4327659   -0.12202766048978
             3.1282538   -0.10596481042531
             1.3257214    0.13708383055021
             0.5644191    0.42571611170869
             0.2410741    0.41428846166282
             0.1032089    0.18204070073065
             0.0412836   0.030111650120859
 p   12 1.00
             1288.9716  0.00024047000076546
              312.2443  0.0015279500048637
             111.34634  0.0067375300214468
             43.736087   0.023887840076039
             17.856524   0.068773230218917
             7.4327659    0.11190534035621
             3.1282538    0.12059088038386
             1.3257214   -0.22523997071698
             0.5644191   -0.64105309204059
             0.2410741   0.051740530164699
             0.1032089    0.69480634221169
             0.0412836    0.30411632096806
 d    5 1.00
             3.6204561   0.026701639990782